LAMMPS (9 Nov 2011)
# 2d NEMD simulation

units           lj
atom_style      atomic
dimension       2d

lattice         sq2 0.8442
Lattice spacing in x,y,z = 1.53919 1.53919 1.53919
region          box prism 0 10 0 8 -0.5 0.5 0 0 0
create_box      2 box
Created triclinic box = (0 0 -0.769595) to (15.3919 12.3135 0.769595) with tilt (0 0 0)
  2 by 1 by 1 processor grid
create_atoms    1 box
Created 160 atoms
mass            * 1.0

velocity        all create 1.44 87287 loop geom

region          slice block 4 6 INF INF INF INF
set             region slice type 2
  40 settings made for type

pair_style      lj/cut 2.5
pair_coeff      * * 1.0 1.0 1.0

neighbor        0.3 bin
neigh_modify    delay 0 every 1

fix             1 all nvt/sllod temp 1.0 1.0 1.0 tchain 1
fix             2 all deform 1 xy erate 0.01 remap v

dump            1 all custom 500 dump.nemd id type x y z

thermo          1000

run             50000
<<<<<<< HEAD
Memory usage per processor = 2.06269 Mbytes
Step Temp E_pair E_mol TotEng Press Volume 
       0         1.44            0            0        1.431    1.2080502    189.52855 
    1000    1.0816543   0.33657579            0    1.4114698    7.1409456    189.52855 
    2000    1.0670791   0.40233791            0    1.4627478    7.3092854    189.52855 
    3000    1.0830177   0.27304234            0    1.3492912    6.0030559    189.52855 
    4000    1.0078662   0.26658175            0    1.2681488    6.6029251    189.52855 
    5000    0.8911376   0.29361807            0    1.1791861     6.427999    189.52855 
    6000   0.88621544   0.26969393            0    1.1503705    6.7848169    189.52855 
    7000    0.9126253   0.23533459            0     1.142256    5.7862304    189.52855 
    8000   0.91951145    0.2524089            0    1.1661734    5.7759954    189.52855 
    9000   0.94877761   0.19637648            0    1.1392242     5.680867    189.52855 
   10000   0.86009188    0.3427782            0    1.1974945    7.0060097    189.52855 
   11000   0.98527259   0.28773469            0    1.2668493    5.8036937    189.52855 
   12000    1.0049557   0.33115401            0    1.3298288     7.229198    189.52855 
   13000    1.0717775   0.24258127            0    1.3076602    6.2977882    189.52855 
   14000    1.0645901   0.25714755            0     1.315084    5.9887551    189.52855 
   15000    1.0208765   0.27026773            0    1.2847637    6.3037086    189.52855 
   16000    1.0421226   0.29051271            0    1.3261221    7.4911196    189.52855 
   17000     1.063029   0.28961486            0    1.3459999    6.4693392    189.52855 
   18000    1.0099858   0.33592184            0    1.3395952    7.0655893    189.52855 
   19000    1.0528403   0.29507897            0     1.341339    6.5096691    189.52855 
   20000     0.906993   0.38630563            0    1.2876299    8.0979474    189.52855 
   21000    1.0075158    0.2500718            0    1.2512906    5.3253488    189.52855 
   22000   0.93594113   0.24689318            0    1.1769847    6.2699636    189.52855 
   23000   0.95267913   0.23245957            0    1.1791845    5.7380232    189.52855 
   24000   0.89616836   0.26513081            0    1.1556981    6.2319929    189.52855 
   25000   0.91180429    0.2814664            0    1.1875719     6.289137    189.52855 
   26000   0.96654061   0.22754593            0    1.1880457    5.9840756    189.52855 
   27000   0.92180138   0.20856146            0    1.1246016    5.2974156    189.52855 
   28000   0.94705363   0.21193056            0    1.1530651    5.3482697    189.52855 
   29000   0.93575384   0.29490992            0    1.2248153    6.7926001    189.52855 
   30000   0.92338223   0.33496556            0    1.2525767    6.6778899    189.52855 
   31000   0.99651737   0.27140146            0    1.2616906    6.8163715    189.52855 
   32000    1.0289704   0.23413852            0    1.2566778    6.1989152    189.52855 
   33000    1.1273003   0.24501231            0     1.365267    6.2953266    189.52855 
   34000     1.067532   0.29399111            0     1.354851    6.9797723    189.52855 
   35000    0.8855965   0.39492809            0    1.2749896    7.9539509    189.52855 
   36000    1.0746163   0.22957156            0    1.2974715    5.6195021    189.52855 
   37000    1.0610484   0.28581363            0    1.3402305    6.4597035    189.52855 
   38000    1.0225288   0.29180932            0    1.3079473    6.3294253    189.52855 
   39000    1.0214812   0.24392413            0     1.259021    5.9427672    189.52855 
   40000    1.0814272   0.23882475            0    1.3134931    5.4277762    189.52855 
   41000   0.94576967   0.30946274            0    1.2493213     6.191359    189.52855 
   42000    1.0224659    0.1839845            0      1.20006    5.2092459    189.52855 
   43000   0.91742381   0.30942789            0    1.2211178    6.4118398    189.52855 
   44000   0.96999381     0.213466            0    1.1773974    4.9780324    189.52855 
   45000   0.88863602    0.2407292            0    1.1238113    5.3597413    189.52855 
   46000   0.86832286   0.26036644            0    1.1232623     5.583901    189.52855 
   47000   0.89765934   0.18497207            0     1.077021    4.6587828    189.52855 
   48000    0.8108285   0.24995903            0    1.0557198    5.8571975    189.52855 
   49000    0.8697895    0.2018981            0    1.0662514    5.2723527    189.52855 
   50000   0.92204545   0.19652194            0    1.1128046    5.0839581    189.52855 
Loop time of 1.30534 on 1 procs for 50000 steps with 160 atoms

Pair  time (%) = 0.209458 (16.0462)
Neigh time (%) = 0.155547 (11.9162)
Comm  time (%) = 0.0605111 (4.63564)
Outpt time (%) = 0.0234551 (1.79686)
Other time (%) = 0.856373 (65.6051)

Nlocal:    160 ave 160 max 160 min
Histogram: 1 0 0 0 0 0 0 0 0 0
Nghost:    62 ave 62 max 62 min
Histogram: 1 0 0 0 0 0 0 0 0 0
Neighs:    356 ave 356 max 356 min
Histogram: 1 0 0 0 0 0 0 0 0 0

Total # of neighbors = 356
Ave neighs/atom = 2.225
Neighbor list builds = 5265
=======
Memory usage per processor = 2.06169 Mbytes
Step Temp E_pair E_mol TotEng Press Volume 
       0         1.44            0            0        1.431    1.2080502    189.52855 
    1000    1.1210792   0.29845762            0    1.4125301    6.4586144    189.52855 
    2000    1.1499222   0.25978434            0    1.4025195    5.8875668    189.52855 
    3000    1.0722944   0.28305148            0    1.3486441    6.5015179    189.52855 
    4000    1.0489485   0.26329207            0    1.3056846    6.0942305    189.52855 
    5000   0.95810861   0.28080968            0    1.2329301    6.0790662    189.52855 
    6000   0.92877099   0.21403115            0    1.1369973    6.3079139    189.52855 
    7000   0.92709098   0.23067683            0    1.1519735    5.1851468    189.52855 
    8000   0.85602208   0.27875535            0    1.1294273    6.2192104    189.52855 
    9000   0.83436241   0.28976536            0     1.118913     5.899702    189.52855 
   10000   0.90845836   0.18495911            0    1.0877396    5.3163589    189.52855 
   11000    0.8347113    0.2061107            0    1.0356051    5.2058218    189.52855 
   12000   0.82553107   0.21451708            0    1.0348886      5.03746    189.52855 
   13000   0.84936104   0.22136705            0    1.0654196    5.2017463    189.52855 
   14000   0.91482344   0.18659576            0    1.0957016    5.3859622    189.52855 
   15000   0.89478907   0.23896215            0    1.1281588    5.7913372    189.52855 
   16000   0.89522353   0.23443404            0    1.1240624    6.0293992    189.52855 
   17000   0.97915908   0.21486235            0    1.1879017    6.2897364    189.52855 
   18000   0.97528647   0.26597314            0    1.2351641    5.9056981    189.52855 
   19000   0.97760652   0.33947818            0    1.3109747    6.7481717    189.52855 
   20000    1.0254183   0.30363868            0    1.3226481    6.2144063    189.52855 
   21000    1.0745653   0.27864779            0    1.3464971    6.0915501    189.52855 
   22000    1.1364789   0.25286981            0    1.3822457    5.6274101    189.52855 
   23000    1.0737107   0.35552499            0     1.422525    7.6626933    189.52855 
   24000    1.1871099   0.33132373            0    1.5110142    6.8716091    189.52855 
   25000    1.1755554   0.36447309            0    1.5326813    6.9409324    189.52855 
   26000    1.1753564   0.35705786            0    1.5250683    7.3641706    189.52855 
   27000     1.198581   0.31551157            0    1.5066014    7.1526221    189.52855 
   28000    1.1632391   0.30077886            0    1.4567477    6.5838897    189.52855 
   29000    1.1279664   0.33603616            0    1.4569527    7.6944697    189.52855 
   30000     1.154423    0.3193333            0    1.4665411    6.9522949    189.52855 
   31000    1.1038014   0.29090844            0    1.3878111    6.8514101    189.52855 
   32000    1.0026192   0.32626991            0    1.3226227    6.6104552    189.52855 
   33000    1.0070409    0.2371593            0    1.2379062    6.0201214    189.52855 
   34000    0.9434819   0.25538243            0    1.1929676    5.4294479    189.52855 
   35000   0.84660789   0.26349251            0    1.1048091       6.4389    189.52855 
   36000   0.81058151   0.20864381            0    1.0141592    5.2687233    189.52855 
   37000   0.80132377   0.22471964            0    1.0210351     5.231761    189.52855 
   38000   0.77617382   0.19582379            0   0.96714652    5.1498277    189.52855 
   39000   0.84339543   0.16969903            0    1.0078232    4.7645309    189.52855 
   40000   0.80953282   0.17860732            0   0.98308056    4.7266388    189.52855 
   41000   0.82279369   0.26255545            0    1.0802067    5.4306154    189.52855 
   42000   0.84804873   0.30223498            0    1.1449834    6.3241517    189.52855 
   43000   0.96732227   0.21743325            0    1.1787098    5.3296526    189.52855 
   44000   0.93277003   0.27159761            0    1.1985378    6.0366599    189.52855 
   45000     0.959977   0.34965833            0    1.3036355    7.1969426    189.52855 
   46000     1.114698   0.23268427            0    1.3404154    6.0047665    189.52855 
   47000    1.0972024   0.27954317            0    1.3698881    6.2467011    189.52855 
   48000    1.0578851   0.26084506            0    1.3121183    6.5444292    189.52855 
   49000    1.0629822   0.23536525            0    1.2917038    5.4445114    189.52855 
   50000    1.0337865   0.28087773            0    1.3082031    6.4473202    189.52855 
Loop time of 0.716656 on 2 procs for 50000 steps with 160 atoms

Pair  time (%) = 0.0785367 (10.9588)
Neigh time (%) = 0.0613248 (8.55709)
Comm  time (%) = 0.1394 (19.4515)
Outpt time (%) = 0.0153207 (2.1378)
Other time (%) = 0.422073 (58.8949)

Nlocal:    80 ave 81 max 79 min
Histogram: 1 0 0 0 0 0 0 0 0 1
Nghost:    51 ave 52 max 50 min
Histogram: 1 0 0 0 0 0 0 0 0 1
Neighs:    173 ave 178 max 168 min
Histogram: 1 0 0 0 0 0 0 0 0 1

Total # of neighbors = 346
Ave neighs/atom = 2.1625
Neighbor list builds = 5260
>>>>>>> 605367f70cfd4f193235c4e8cb433371382358cc
Dangerous builds = 0
~                      
ERROR: Unknown command: ~                      
 (input.cpp:203)
