LAMMPS (9 Nov 2011)
# 2d NEMD simulation

units           lj
atom_style      atomic
dimension       2d

lattice         sq2 0.8442
Lattice spacing in x,y,z = 1.53919 1.53919 1.53919
region          box prism 0 10 0 8 -0.5 0.5 0 0 0
create_box      2 box
Created triclinic box = (0 0 -0.769595) to (15.3919 12.3135 0.769595) with tilt (0 0 0)
  2 by 1 by 1 processor grid
create_atoms    1 box
Created 160 atoms
mass            * 1.0

velocity        all create 1.44 87287 loop geom

region          slice block 4 6 INF INF INF INF
set             region slice type 2
  40 settings made for type

pair_style      lj/cut 2.5
pair_coeff      * * 1.0 1.0 1.0

neighbor        0.3 bin
neigh_modify    delay 0 every 1

fix             1 all nvt/sllod temp 1.0 1.0 1.0 tchain 1
fix             2 all deform 1 xy erate 0.01 remap v

dump            1 all custom 500 dump.nemd id type x y z

thermo          1000

run             50000
Memory usage per processor = 2.06169 Mbytes
Step Temp E_pair E_mol TotEng Press Volume 
       0         1.44            0            0        1.431    1.2080502    189.52855 
    1000    1.1210792   0.29845762            0    1.4125301    6.4586144    189.52855 
    2000    1.1499222   0.25978434            0    1.4025195    5.8875668    189.52855 
    3000    1.0722944   0.28305148            0    1.3486441    6.5015179    189.52855 
    4000    1.0489485   0.26329207            0    1.3056846    6.0942305    189.52855 
    5000   0.95810861   0.28080968            0    1.2329301    6.0790662    189.52855 
    6000   0.92877099   0.21403115            0    1.1369973    6.3079139    189.52855 
    7000   0.92709098   0.23067683            0    1.1519735    5.1851468    189.52855 
    8000   0.85602208   0.27875535            0    1.1294273    6.2192104    189.52855 
    9000   0.83436241   0.28976536            0     1.118913     5.899702    189.52855 
   10000   0.90845836   0.18495911            0    1.0877396    5.3163589    189.52855 
   11000    0.8347113    0.2061107            0    1.0356051    5.2058218    189.52855 
   12000   0.82553107   0.21451708            0    1.0348886      5.03746    189.52855 
   13000   0.84936104   0.22136705            0    1.0654196    5.2017463    189.52855 
   14000   0.91482344   0.18659576            0    1.0957016    5.3859622    189.52855 
   15000   0.89478907   0.23896215            0    1.1281588    5.7913372    189.52855 
   16000   0.89522353   0.23443404            0    1.1240624    6.0293992    189.52855 
   17000   0.97915908   0.21486235            0    1.1879017    6.2897364    189.52855 
   18000   0.97528647   0.26597314            0    1.2351641    5.9056981    189.52855 
   19000   0.97760652   0.33947818            0    1.3109747    6.7481717    189.52855 
   20000    1.0254183   0.30363868            0    1.3226481    6.2144063    189.52855 
   21000    1.0745653   0.27864779            0    1.3464971    6.0915501    189.52855 
   22000    1.1364789   0.25286981            0    1.3822457    5.6274101    189.52855 
   23000    1.0737107   0.35552499            0     1.422525    7.6626933    189.52855 
   24000    1.1871099   0.33132373            0    1.5110142    6.8716091    189.52855 
   25000    1.1755554   0.36447309            0    1.5326813    6.9409324    189.52855 
   26000    1.1753564   0.35705786            0    1.5250683    7.3641706    189.52855 
   27000     1.198581   0.31551157            0    1.5066014    7.1526221    189.52855 
   28000    1.1632391   0.30077886            0    1.4567477    6.5838897    189.52855 
   29000    1.1279664   0.33603616            0    1.4569527    7.6944697    189.52855 
   30000     1.154423    0.3193333            0    1.4665411    6.9522949    189.52855 
   31000    1.1038014   0.29090844            0    1.3878111    6.8514101    189.52855 
   32000    1.0026192   0.32626991            0    1.3226227    6.6104552    189.52855 
   33000    1.0070409    0.2371593            0    1.2379062    6.0201214    189.52855 
   34000    0.9434819   0.25538243            0    1.1929676    5.4294479    189.52855 
   35000   0.84660789   0.26349251            0    1.1048091       6.4389    189.52855 
   36000   0.81058151   0.20864381            0    1.0141592    5.2687233    189.52855 
   37000   0.80132377   0.22471964            0    1.0210351     5.231761    189.52855 
   38000   0.77617382   0.19582379            0   0.96714652    5.1498277    189.52855 
   39000   0.84339543   0.16969903            0    1.0078232    4.7645309    189.52855 
   40000   0.80953282   0.17860732            0   0.98308056    4.7266388    189.52855 
   41000   0.82279369   0.26255545            0    1.0802067    5.4306154    189.52855 
   42000   0.84804873   0.30223498            0    1.1449834    6.3241517    189.52855 
   43000   0.96732227   0.21743325            0    1.1787098    5.3296526    189.52855 
   44000   0.93277003   0.27159761            0    1.1985378    6.0366599    189.52855 
   45000     0.959977   0.34965833            0    1.3036355    7.1969426    189.52855 
   46000     1.114698   0.23268427            0    1.3404154    6.0047665    189.52855 
   47000    1.0972024   0.27954317            0    1.3698881    6.2467011    189.52855 
   48000    1.0578851   0.26084506            0    1.3121183    6.5444292    189.52855 
   49000    1.0629822   0.23536525            0    1.2917038    5.4445114    189.52855 
   50000    1.0337865   0.28087773            0    1.3082031    6.4473202    189.52855 
Loop time of 0.716656 on 2 procs for 50000 steps with 160 atoms

Pair  time (%) = 0.0785367 (10.9588)
Neigh time (%) = 0.0613248 (8.55709)
Comm  time (%) = 0.1394 (19.4515)
Outpt time (%) = 0.0153207 (2.1378)
Other time (%) = 0.422073 (58.8949)

Nlocal:    80 ave 81 max 79 min
Histogram: 1 0 0 0 0 0 0 0 0 1
Nghost:    51 ave 52 max 50 min
Histogram: 1 0 0 0 0 0 0 0 0 1
Neighs:    173 ave 178 max 168 min
Histogram: 1 0 0 0 0 0 0 0 0 1

Total # of neighbors = 346
Ave neighs/atom = 2.1625
Neighbor list builds = 5260
Dangerous builds = 0
~                      
ERROR: Unknown command: ~                      
 (input.cpp:203)
