LAMMPS (9 Nov 2011)
# 2d NEMD simulation

units           lj
atom_style      atomic
dimension       2d

lattice         sq2 0.8442
Lattice spacing in x,y,z = 1.53919 1.53919 1.53919
region          box prism 0 10 0 8 -0.5 0.5 0 0 0
create_box      2 box
Created triclinic box = (0 0 -0.769595) to (15.3919 12.3135 0.769595) with tilt (0 0 0)
  1 by 1 by 1 processor grid
create_atoms    1 box
Created 160 atoms
mass            * 1.0

velocity        all create 1.44 87287 loop geom

region          slice block 4 6 INF INF INF INF
set             region slice type 2
  40 settings made for type

pair_style      lj/cut 2.5
pair_coeff      * * 1.0 1.0 1.0

neighbor        0.3 bin
neigh_modify    delay 0 every 1

fix             1 all nvt/sllod temp 1.0 1.0 1.0 tchain 1
fix             2 all deform 1 xy erate 0.01 remap v

dump            1 all custom 500 dump.nemd id type x y z

thermo          1000

run             50000
Memory usage per processor = 2.06269 Mbytes
Step Temp E_pair E_mol TotEng Press Volume 
       0         1.44            0            0        1.431    1.2080502    189.52855 
    1000    1.0816543   0.33657579            0    1.4114698    7.1409456    189.52855 
    2000    1.0670791   0.40233791            0    1.4627478    7.3092854    189.52855 
    3000    1.0830177   0.27304234            0    1.3492912    6.0030559    189.52855 
    4000    1.0078662   0.26658175            0    1.2681488    6.6029251    189.52855 
    5000    0.8911376   0.29361807            0    1.1791861     6.427999    189.52855 
    6000   0.88621544   0.26969393            0    1.1503705    6.7848169    189.52855 
    7000    0.9126253   0.23533459            0     1.142256    5.7862304    189.52855 
    8000   0.91951145    0.2524089            0    1.1661734    5.7759954    189.52855 
    9000   0.94877761   0.19637648            0    1.1392242     5.680867    189.52855 
   10000   0.86009188    0.3427782            0    1.1974945    7.0060097    189.52855 
   11000   0.98527259   0.28773469            0    1.2668493    5.8036937    189.52855 
   12000    1.0049557   0.33115401            0    1.3298288     7.229198    189.52855 
   13000    1.0717775   0.24258127            0    1.3076602    6.2977882    189.52855 
   14000    1.0645901   0.25714755            0     1.315084    5.9887551    189.52855 
   15000    1.0208765   0.27026773            0    1.2847637    6.3037086    189.52855 
   16000    1.0421226   0.29051271            0    1.3261221    7.4911196    189.52855 
   17000     1.063029   0.28961486            0    1.3459999    6.4693392    189.52855 
   18000    1.0099858   0.33592184            0    1.3395952    7.0655893    189.52855 
   19000    1.0528403   0.29507897            0     1.341339    6.5096691    189.52855 
   20000     0.906993   0.38630563            0    1.2876299    8.0979474    189.52855 
   21000    1.0075158    0.2500718            0    1.2512906    5.3253488    189.52855 
   22000   0.93594113   0.24689318            0    1.1769847    6.2699636    189.52855 
   23000   0.95267913   0.23245957            0    1.1791845    5.7380232    189.52855 
   24000   0.89616836   0.26513081            0    1.1556981    6.2319929    189.52855 
   25000   0.91180429    0.2814664            0    1.1875719     6.289137    189.52855 
   26000   0.96654061   0.22754593            0    1.1880457    5.9840756    189.52855 
   27000   0.92180138   0.20856146            0    1.1246016    5.2974156    189.52855 
   28000   0.94705363   0.21193056            0    1.1530651    5.3482697    189.52855 
   29000   0.93575384   0.29490992            0    1.2248153    6.7926001    189.52855 
   30000   0.92338223   0.33496556            0    1.2525767    6.6778899    189.52855 
   31000   0.99651737   0.27140146            0    1.2616906    6.8163715    189.52855 
   32000    1.0289704   0.23413852            0    1.2566778    6.1989152    189.52855 
   33000    1.1273003   0.24501231            0     1.365267    6.2953266    189.52855 
   34000     1.067532   0.29399111            0     1.354851    6.9797723    189.52855 
   35000    0.8855965   0.39492809            0    1.2749896    7.9539509    189.52855 
   36000    1.0746163   0.22957156            0    1.2974715    5.6195021    189.52855 
   37000    1.0610484   0.28581363            0    1.3402305    6.4597035    189.52855 
   38000    1.0225288   0.29180932            0    1.3079473    6.3294253    189.52855 
   39000    1.0214812   0.24392413            0     1.259021    5.9427672    189.52855 
   40000    1.0814272   0.23882475            0    1.3134931    5.4277762    189.52855 
   41000   0.94576967   0.30946274            0    1.2493213     6.191359    189.52855 
   42000    1.0224659    0.1839845            0      1.20006    5.2092459    189.52855 
   43000   0.91742381   0.30942789            0    1.2211178    6.4118398    189.52855 
   44000   0.96999381     0.213466            0    1.1773974    4.9780324    189.52855 
   45000   0.88863602    0.2407292            0    1.1238113    5.3597413    189.52855 
   46000   0.86832286   0.26036644            0    1.1232623     5.583901    189.52855 
   47000   0.89765934   0.18497207            0     1.077021    4.6587828    189.52855 
   48000    0.8108285   0.24995903            0    1.0557198    5.8571975    189.52855 
   49000    0.8697895    0.2018981            0    1.0662514    5.2723527    189.52855 
   50000   0.92204545   0.19652194            0    1.1128046    5.0839581    189.52855 
Loop time of 1.30534 on 1 procs for 50000 steps with 160 atoms

Pair  time (%) = 0.209458 (16.0462)
Neigh time (%) = 0.155547 (11.9162)
Comm  time (%) = 0.0605111 (4.63564)
Outpt time (%) = 0.0234551 (1.79686)
Other time (%) = 0.856373 (65.6051)

Nlocal:    160 ave 160 max 160 min
Histogram: 1 0 0 0 0 0 0 0 0 0
Nghost:    62 ave 62 max 62 min
Histogram: 1 0 0 0 0 0 0 0 0 0
Neighs:    356 ave 356 max 356 min
Histogram: 1 0 0 0 0 0 0 0 0 0

Total # of neighbors = 356
Ave neighs/atom = 2.225
Neighbor list builds = 5265
Dangerous builds = 0
~                      
ERROR: Unknown command: ~                      
 (input.cpp:203)
