LAMMPS (9 Nov 2011)
WARNING(LAMMPS): Unsupported system.
ERROR: Unknown command: WARNING(LAMMPS): Unsupported system.
 (input.cpp:203)
