LAMMPS (9 Nov 2011)
echo               both
dimension          3
units              si
atom_style         meso
boundary          p p p
include      3d-vars.lmp
variable           dx   equal 2.5e-5
variable           Lx    equal  10*${dx}
variable           Lx    equal  10*2.5e-05
variable           Ly    equal  10*${dx}
variable           Ly    equal  10*2.5e-05
variable           Lz    equal  10*${dx}
variable           Lz    equal  10*2.5e-05
variable           sdpd_rho equal 1000
variable           sdpd_c equal 3e-1
variable           sdpd_eta equal 1.5e-2
variable           sdpd_mu  equal ${sdpd_eta}/${sdpd_rho}
variable           sdpd_mu  equal 0.015/${sdpd_rho}
variable           sdpd_mu  equal 0.015/1000
variable          h equal 2.7*${dx}
variable          h equal 2.7*2.5e-05
variable          gx equal 6.12
variable          Nfreq equal 1000
variable          r0       equal 1.4*${dx}
variable          r0       equal 1.4*2.5e-05
variable          H        equal 5.3e-4
variable          sdpd_mass equal ${dx}*${dx}*${dx}*${sdpd_rho}
variable          sdpd_mass equal 2.5e-05*${dx}*${dx}*${sdpd_rho}
variable          sdpd_mass equal 2.5e-05*2.5e-05*${dx}*${sdpd_rho}
variable          sdpd_mass equal 2.5e-05*2.5e-05*2.5e-05*${sdpd_rho}
variable          sdpd_mass equal 2.5e-05*2.5e-05*2.5e-05*1000
variable          def_rate      equal 2e2
# create simulation box
#3D box
region             box block 0.0 ${Lx}  0.0 ${Ly} 0.0 ${Lz} units box
region             box block 0.0 0.00025  0.0 ${Ly} 0.0 ${Lz} units box
region             box block 0.0 0.00025  0.0 0.00025 0.0 ${Lz} units box
region             box block 0.0 0.00025  0.0 0.00025 0.0 0.00025 units box
create_box         1 box
Created orthogonal box = (0 0 0) to (0.00025 0.00025 0.00025)
  1 by 1 by 2 processor grid

# create fluid particles
lattice            sc ${dx}
lattice            sc 2.5e-05
Lattice spacing in x,y,z = 2.5e-05 2.5e-05 2.5e-05
create_atoms       1 region box
Created 1000 atoms

mass               1 ${sdpd_mass}
mass               1 1.5625e-11
set                group all meso_rho ${sdpd_rho}
set                group all meso_rho 1000
  1000 settings made for meso_rho



# use Tait's EOS in combination with Morris' laminar viscosity.
# We set rho_0 = 1000 kg/m^3, c = 0.1 m/s, h = 6.5e-5 m.
# The dynamic viscosity is set to 1.0e-3 Pa s, corresponding to a kinematic viscosity of 1.0e-6 m^2/s
pair_style         hybrid/overlay sph/rhosum 1 sdpd
variable           sdpd_temp index 1e9
pair_coeff         * * sph/rhosum   ${h}
pair_coeff         * * sph/rhosum   6.75e-05
pair_coeff         * *    sdpd ${sdpd_rho} ${sdpd_c} ${sdpd_eta} ${h}  ${sdpd_temp}
pair_coeff         * *    sdpd 1000 ${sdpd_c} ${sdpd_eta} ${h}  ${sdpd_temp}
pair_coeff         * *    sdpd 1000 0.3 ${sdpd_eta} ${h}  ${sdpd_temp}
pair_coeff         * *    sdpd 1000 0.3 0.015 ${h}  ${sdpd_temp}
pair_coeff         * *    sdpd 1000 0.3 0.015 6.75e-05  ${sdpd_temp}
pair_coeff         * *    sdpd 1000 0.3 0.015 6.75e-05  1e9

compute            sdpd_kin all temp
compute            rho_peratom all meso_rho/atom

# do full time integration for shear driver and fluid, but keep walls stationary
fix                integrate_fix_full all meso

variable            A_kol equal 20
variable            var_kol atom ${A_kol}*${sdpd_mass}*cos(2*PI*y/${Ly})
variable            var_kol atom 20*${sdpd_mass}*cos(2*PI*y/${Ly})
variable            var_kol atom 20*1.5625e-11*cos(2*PI*y/${Ly})
variable            var_kol atom 20*1.5625e-11*cos(2*PI*y/0.00025)
fix                 kol_force all addforce v_var_kol 0.0 0.0

# average velocity
variable          Nfreq equal 1000
compute vxav all reduce ave vx
variable  vx_cm atom vx-c_vxav
fix av_vx all ave/spatial 1 ${Nfreq} ${Nfreq} y center 0.01 v_vx_cm file vx.av ave running units reduced
fix av_vx all ave/spatial 1 1000 ${Nfreq} y center 0.01 v_vx_cm file vx.av ave running units reduced
fix av_vx all ave/spatial 1 1000 1000 y center 0.01 v_vx_cm file vx.av ave running units reduced

dump               dump_id all custom 1000 dump*.dat id type x y z vx vy vy c_rho_peratom
dump_modify        dump_id first yes
dump_modify        dump_id sort id
dump_modify        dump_id pad 8
thermo_style       custom step c_sdpd_kin
thermo_modify      norm no
thermo             10

dump imgDump all image 100 image.*.jpg type type  adiam ${dx} view 0 0 zoom 1.3  box yes 0.01
dump imgDump all image 100 image.*.jpg type type  adiam 2.5e-05 view 0 0 zoom 1.3  box yes 0.01
dump_modify        imgDump pad 9
dump imgDump2 all image 100 image2.*.jpg type type adiam ${dx} view 60 60 zoom 1.3  box yes 0.01
dump imgDump2 all image 100 image2.*.jpg type type adiam 2.5e-05 view 60 60 zoom 1.3  box yes 0.01
dump_modify        imgDump2 pad 9
include            settimestep.lmp
variable dt_eta equal 1/8.0*${dx}*${dx}/(${sdpd_mu})
variable dt_eta equal 1/8.0*2.5e-05*${dx}/(${sdpd_mu})
variable dt_eta equal 1/8.0*2.5e-05*2.5e-05/(${sdpd_mu})
variable dt_eta equal 1/8.0*2.5e-05*2.5e-05/(1.5e-05)
variable dt_c equal 1/4.0*${dx}/${sdpd_c}
variable dt_c equal 1/4.0*2.5e-05/${sdpd_c}
variable dt_c equal 1/4.0*2.5e-05/0.3

if "${dt_c}>${dt_eta}" then "variable dt equal ${dt_eta}" else "variable dt equal ${dt_c}"
variable dt equal ${dt_eta}
variable dt equal 5.208333333e-06
print "(settimestep) dt_c dt_eta dt ${dt_c} ${dt_eta} ${dt}"
(settimestep) dt_c dt_eta dt 2.083333333e-05 5.208333333e-06 5.208333333e-06

neighbor           3.0e-6 bin
timestep           ${dt}
timestep           5.208333333e-06
communicate        single vel yes

run                100000
Memory usage per processor = 3.66885 Mbytes
Step sdpd_kin 
       0            0 
      10 9.1648621e+08 
      20 9.4459806e+08 
      30 9.8753145e+08 
      40 9.3564341e+08 
      50 9.6378233e+08 
      60 9.5624795e+08 
      70 9.5395236e+08 
      80 9.6792201e+08 
      90 9.2128789e+08 
     100 9.5897533e+08 
     110 9.8860002e+08 
     120 9.6242739e+08 
     130 9.405189e+08 
     140 9.4665522e+08 
     150 9.5402657e+08 
     160 9.3478471e+08 
     170 9.6067847e+08 
     180 8.8989437e+08 
     190 9.6418579e+08 
     200 9.7033237e+08 
     210 9.6610826e+08 
     220 9.1692825e+08 
     230 9.5358893e+08 
     240 9.6745991e+08 
     250 9.3113429e+08 
     260 9.4346599e+08 
     270 9.246666e+08 
     280 9.8332323e+08 
     290 9.3808673e+08 
     300 9.634359e+08 
     310 9.8597751e+08 
     320 9.6169705e+08 
     330 1.0204533e+09 
     340 9.2473931e+08 
     350 9.3081022e+08 
     360 9.7019376e+08 
     370 9.401285e+08 
     380 9.6590745e+08 
     390 9.6775185e+08 
     400 9.6506933e+08 
     410 9.5145541e+08 
     420 9.7899616e+08 
     430 9.5474906e+08 
     440 9.5274918e+08 
     450 9.3496414e+08 
     460 9.5289807e+08 
     470 9.2511719e+08 
     480 9.7358903e+08 
     490 9.7604706e+08 
     500 9.4957204e+08 
     510 9.4374192e+08 
     520 9.621596e+08 
     530 9.4780355e+08 
     540 9.8629387e+08 
     550 9.8903563e+08 
     560 9.4397881e+08 
     570 9.0122455e+08 
     580 9.3711904e+08 
     590 9.4259596e+08 
     600 9.5746206e+08 
     610 9.7293266e+08 
     620 1.0048177e+09 
     630 9.4501453e+08 
     640 9.455887e+08 
     650 9.5781805e+08 
     660 9.8227177e+08 
     670 9.8936857e+08 
     680 9.3971864e+08 
     690 9.3200724e+08 
     700 9.3399124e+08 
     710 9.5052745e+08 
     720 9.8271098e+08 
     730 9.4262437e+08 
     740 9.3930808e+08 
     750 9.5643093e+08 
     760 9.2869941e+08 
     770 9.5820409e+08 
     780 9.2537803e+08 
     790 9.3304097e+08 
     800 9.2194064e+08 
     810 9.8253853e+08 
     820 9.7857805e+08 
     830 9.4155473e+08 
     840 9.8072884e+08 
     850 9.7239762e+08 
     860 9.563227e+08 
     870 9.7437951e+08 
     880 9.4442778e+08 
     890 9.4625333e+08 
     900 9.5628103e+08 
     910 9.7254456e+08 
     920 9.9652946e+08 
     930 9.4230971e+08 
     940 9.5553343e+08 
     950 1.0101661e+09 
     960 9.6063084e+08 
     970 9.443953e+08 
     980 9.5030071e+08 
     990 9.4716663e+08 
    1000 9.4476347e+08 
    1010 9.2854753e+08 
    1020 9.8557413e+08 
    1030 9.454776e+08 
    1040 9.6519548e+08 
    1050 9.7700985e+08 
    1060 1.0077828e+09 
    1070 9.8989673e+08 
    1080 9.7419848e+08 
    1090 9.4788214e+08 
    1100 9.9136175e+08 
    1110 9.9098355e+08 
    1120  9.93834e+08 
    1130 9.2222392e+08 
    1140 9.543988e+08 
    1150 9.5077837e+08 
    1160 9.7450055e+08 
    1170 9.4450927e+08 
    1180 9.6866521e+08 
    1190 9.4479775e+08 
    1200 9.2135106e+08 
    1210 9.5759518e+08 
    1220 9.6127265e+08 
    1230 9.5634432e+08 
    1240 9.3385297e+08 
    1250 9.3669437e+08 
    1260 9.2555658e+08 
    1270 9.1646584e+08 
    1280 1.0154625e+09 
    1290 9.5044721e+08 
    1300 9.3456434e+08 
    1310 9.3032335e+08 
    1320 9.5567239e+08 
    1330 9.4983584e+08 
    1340 9.0750662e+08 
    1350 9.2069214e+08 
    1360 9.6503884e+08 
    1370 9.5951711e+08 
    1380 9.8597609e+08 
    1390 9.7902879e+08 
    1400 9.6392723e+08 
    1410 9.0242369e+08 
    1420 1.006472e+09 
    1430 9.9944414e+08 
    1440 9.5028643e+08 
    1450 9.6473063e+08 
    1460 9.5935707e+08 
    1470  9.61393e+08 
    1480 9.8917949e+08 
    1490 9.7014707e+08 
    1500 9.9820219e+08 
    1510 9.745228e+08 
    1520 9.7206204e+08 
    1530 9.7385948e+08 
    1540 9.6598774e+08 
    1550 9.5440645e+08 
    1560 9.6373115e+08 
    1570 9.4481429e+08 
    1580 9.3359452e+08 
    1590 9.6158043e+08 
    1600 9.2837519e+08 
    1610 9.526602e+08 
    1620 9.8447186e+08 
    1630 9.696332e+08 
    1640 1.0045236e+09 
    1650 1.0031778e+09 
    1660 9.9767648e+08 
    1670 9.4762321e+08 
    1680 9.1399029e+08 
    1690 9.2393064e+08 
    1700 9.828771e+08 
    1710 9.5260545e+08 
    1720 9.5186176e+08 
    1730 9.9369536e+08 
    1740 9.3294637e+08 
    1750 9.7008792e+08 
    1760 9.3828312e+08 
    1770 1.0160884e+09 
    1780 9.602721e+08 
    1790 9.6347062e+08 
    1800 9.8819691e+08 
    1810 9.6760051e+08 
    1820 9.3607137e+08 
    1830 9.4957009e+08 
    1840 9.2330636e+08 
    1850 9.423594e+08 
    1860 9.8425388e+08 
    1870 9.2543993e+08 
    1880 9.304504e+08 
    1890 9.1916824e+08 
    1900 9.5781844e+08 
    1910 9.7432148e+08 
    1920 9.5457399e+08 
    1930 9.4177995e+08 
    1940 9.7563875e+08 
    1950 9.6206418e+08 
    1960 1.0001709e+09 
    1970 9.6773801e+08 
    1980 9.6313411e+08 
    1990 9.5133191e+08 
    2000 9.4597929e+08 
    2010 9.7558792e+08 
    2020 9.9407594e+08 
    2030 9.8271314e+08 
    2040 9.6623241e+08 
    2050 9.8417025e+08 
    2060 9.7327509e+08 
    2070 9.4868544e+08 
    2080 9.898213e+08 
    2090 1.0206459e+09 
    2100 9.8910272e+08 
    2110 1.0176579e+09 
    2120 9.9333581e+08 
    2130 9.343843e+08 
    2140 9.7879233e+08 
    2150 9.5740993e+08 
    2160 9.6153673e+08 
    2170 9.9120878e+08 
    2180 9.5014966e+08 
    2190 9.4693667e+08 
    2200 9.8185519e+08 
    2210 9.8927926e+08 
    2220 9.5305826e+08 
    2230 9.6494178e+08 
    2240 9.8188455e+08 
    2250 9.1077779e+08 
    2260 9.2360965e+08 
    2270 1.0016707e+09 
    2280 9.7026571e+08 
    2290 9.5206154e+08 
    2300 9.6706227e+08 
    2310 1.0113638e+09 
    2320 9.6004309e+08 
    2330 9.4117178e+08 
    2340 1.0014198e+09 
    2350 9.4345933e+08 
    2360 9.6557579e+08 
    2370 9.1705027e+08 
    2380 9.402577e+08 
    2390 9.7765486e+08 
    2400 9.6821002e+08 
    2410 9.1841359e+08 
    2420 9.4667033e+08 
    2430 9.4281178e+08 
    2440 9.5811848e+08 
    2450 9.3769052e+08 
    2460 9.4904279e+08 
    2470 9.5049843e+08 
    2480 9.5827476e+08 
    2490 9.4694965e+08 
    2500 8.9212298e+08 
    2510 9.1247324e+08 
    2520 9.2517004e+08 
    2530 9.4141402e+08 
    2540 9.5538639e+08 
    2550 9.7524586e+08 
    2560 9.7076302e+08 
    2570 9.8568567e+08 
    2580 9.6947439e+08 
    2590 9.6479183e+08 
    2600 9.7893396e+08 
    2610 9.1085447e+08 
    2620 9.549263e+08 
    2630 9.8308182e+08 
    2640 9.7332257e+08 
    2650 9.5539075e+08 
    2660 9.5488668e+08 
    2670 9.456605e+08 
    2680 9.6693813e+08 
    2690 9.7494568e+08 
    2700 9.4656893e+08 
    2710 1.0084004e+09 
    2720 9.8033932e+08 
    2730 9.5561295e+08 
    2740 9.336511e+08 
    2750 9.7708689e+08 
    2760 9.8117323e+08 
    2770 9.4775216e+08 
    2780 9.2431553e+08 
    2790 9.9976255e+08 
    2800 9.4007554e+08 
    2810 9.4279058e+08 
    2820 9.2910105e+08 
    2830 9.5468276e+08 
    2840 9.8818529e+08 
    2850 9.5242257e+08 
    2860 9.4638901e+08 
    2870 9.1245756e+08 
    2880 9.4769699e+08 
    2890 9.7565964e+08 
    2900 9.4110694e+08 
    2910 9.750981e+08 
    2920 9.905037e+08 
    2930 9.6601284e+08 
    2940 9.8101317e+08 
    2950 9.2203407e+08 
    2960 9.2056454e+08 
    2970 9.6037095e+08 
    2980 9.8336897e+08 
    2990 9.6281913e+08 
    3000 9.9775127e+08 
    3010 9.2237307e+08 
    3020 9.2980272e+08 
    3030 1.0060777e+09 
    3040 9.363374e+08 
    3050 9.6271155e+08 
    3060 9.5777754e+08 
    3070 8.9437821e+08 
    3080 9.4555715e+08 
    3090 8.9800447e+08 
    3100 9.3977021e+08 
    3110 1.0046672e+09 
    3120 9.4364273e+08 
    3130 9.6899226e+08 
    3140 9.514636e+08 
    3150 9.8527804e+08 
    3160 9.0139721e+08 
    3170 9.5340921e+08 
    3180 1.015849e+09 
    3190 9.3570022e+08 
    3200 9.2359949e+08 
    3210 9.5034262e+08 
    3220 9.5636898e+08 
    3230 9.0909221e+08 
    3240 9.320502e+08 
    3250 9.5302374e+08 
    3260 9.6154271e+08 
    3270 9.2852579e+08 
    3280 9.0733794e+08 
    3290 9.7804342e+08 
    3300 9.3603225e+08 
    3310 9.5956738e+08 
    3320 9.3214005e+08 
    3330 9.7981297e+08 
    3340 9.8310399e+08 
    3350 9.5766478e+08 
    3360 9.5148413e+08 
    3370 9.5044917e+08 
    3380 9.5507619e+08 
    3390 9.8373651e+08 
    3400 1.046635e+09 
    3410  9.05822e+08 
    3420 9.3493026e+08 
    3430 9.0234615e+08 
    3440 9.5256827e+08 
    3450 9.6139202e+08 
    3460 9.401031e+08 
    3470 9.1999244e+08 
    3480 9.409506e+08 
    3490 9.8031327e+08 
    3500 9.4217205e+08 
    3510 9.6156838e+08 
    3520 9.1129663e+08 
    3530 9.6887705e+08 
    3540 9.6308471e+08 
    3550 9.6834437e+08 
    3560 9.7720716e+08 
    3570 9.5371145e+08 
    3580 9.6535694e+08 
    3590 9.555288e+08 
    3600 9.9081867e+08 
    3610 9.654082e+08 
    3620 9.1556334e+08 
    3630 9.7158135e+08 
    3640 9.6530482e+08 
    3650 9.868165e+08 
    3660 9.7832722e+08 
    3670 9.6074335e+08 
    3680 9.7785342e+08 
    3690 9.5366129e+08 
    3700 9.8976592e+08 
    3710 9.6568706e+08 
    3720 9.667839e+08 
    3730 9.0049557e+08 
    3740 9.6048162e+08 
    3750 9.676374e+08 
    3760 9.6154159e+08 
    3770 9.3333872e+08 
    3780 9.6821733e+08 
    3790 1.0025014e+09 
    3800 9.838759e+08 
    3810 9.5891542e+08 
    3820 1.0245832e+09 
    3830 9.2666722e+08 
    3840 9.4301217e+08 
    3850 9.0200522e+08 
    3860 9.6614062e+08 
    3870 9.8364103e+08 
    3880 9.5640535e+08 
    3890 9.3864171e+08 
    3900 9.7937587e+08 
    3910 9.5226397e+08 
    3920 1.0000947e+09 
    3930 9.8567927e+08 
    3940 9.489607e+08 
    3950 9.1536553e+08 
    3960 9.4821326e+08 
    3970 9.7413709e+08 
    3980 9.4056108e+08 
    3990 9.0703878e+08 
    4000 9.5256034e+08 
    4010 9.4752682e+08 
    4020 9.9241612e+08 
    4030 9.5049587e+08 
    4040 9.423972e+08 
    4050 9.4602041e+08 
    4060 9.4177323e+08 
    4070 9.7620439e+08 
    4080 9.6344804e+08 
    4090 9.6880456e+08 
    4100 9.5859306e+08 
    4110 9.2090107e+08 
    4120 9.6643612e+08 
    4130 9.6426204e+08 
    4140 9.9012598e+08 
    4150 9.8186526e+08 
    4160 9.4920587e+08 
    4170 9.3560624e+08 
    4180 8.9366924e+08 
    4190 9.2366626e+08 
    4200 9.2402324e+08 
    4210 9.2162321e+08 
    4220 9.5841384e+08 
    4230 9.9209086e+08 
    4240 9.4798802e+08 
    4250 9.7554256e+08 
    4260 9.7381773e+08 
    4270 9.6757169e+08 
    4280 9.8489536e+08 
    4290 9.8456636e+08 
    4300 9.3549584e+08 
    4310 9.7007104e+08 
    4320 9.6240021e+08 
    4330 9.5281058e+08 
    4340 9.4215684e+08 
    4350 9.5173773e+08 
    4360 1.0005014e+09 
    4370 9.227302e+08 
    4380 9.1086921e+08 
    4390 9.8927751e+08 
    4400 9.6008418e+08 
    4410 9.6599457e+08 
    4420 9.8719011e+08 
    4430 9.3977811e+08 
    4440 9.6087112e+08 
    4450 9.5154755e+08 
    4460 9.6783493e+08 
    4470 9.7704884e+08 
    4480 9.8078729e+08 
    4490 9.6180454e+08 
    4500 9.4833044e+08 
    4510 9.1860502e+08 
    4520 9.5903905e+08 
    4530 9.4548301e+08 
    4540 9.742721e+08 
    4550 9.5462707e+08 
    4560 9.8194512e+08 
    4570 9.7787447e+08 
    4580 9.863417e+08 
    4590 9.4531946e+08 
    4600 9.359667e+08 
    4610 9.5064163e+08 
    4620 9.5877675e+08 
    4630 8.9720899e+08 
    4640 9.8588895e+08 
    4650 9.375877e+08 
    4660 9.6382701e+08 
    4670 9.5616975e+08 
    4680 9.3788912e+08 
    4690 9.3453515e+08 
    4700 9.9234284e+08 
    4710 9.2677971e+08 
    4720 9.173359e+08 
    4730 9.670684e+08 
    4740 9.4576855e+08 
    4750 9.6081983e+08 
    4760 9.8836626e+08 
    4770 9.2610713e+08 
    4780 9.4198017e+08 
    4790 9.2781853e+08 
    4800 9.5975352e+08 
    4810 9.5637868e+08 
    4820 9.5342492e+08 
    4830 9.3915239e+08 
    4840 9.447779e+08 
    4850 9.2486375e+08 
    4860 9.5730901e+08 
    4870 9.3574647e+08 
    4880 9.6231033e+08 
    4890 9.5140201e+08 
    4900 9.8290314e+08 
    4910 9.9070149e+08 
    4920 9.7260049e+08 
    4930 9.6792108e+08 
    4940 9.6738616e+08 
    4950 9.5395658e+08 
    4960 9.5350107e+08 
    4970 9.8786679e+08 
    4980 9.6228751e+08 
    4990 9.517891e+08 
    5000 9.9216007e+08 
    5010 9.4501303e+08 
    5020 9.6896779e+08 
    5030 9.8958112e+08 
    5040 9.5046978e+08 
    5050 9.6656111e+08 
    5060 9.1433766e+08 
    5070 9.3848522e+08 
    5080 9.5130339e+08 
    5090 9.4383698e+08 
    5100 9.561553e+08 
    5110 9.7046201e+08 
    5120 9.4994286e+08 
    5130 9.5121866e+08 
    5140 9.4029123e+08 
    5150 9.6783943e+08 
    5160 9.912953e+08 
    5170 1.0047011e+09 
    5180 9.6252528e+08 
    5190 9.5960193e+08 
    5200 9.7070557e+08 
    5210 9.1065974e+08 
    5220 9.1883167e+08 
    5230 9.7771434e+08 
    5240 9.3865394e+08 
    5250 9.0586914e+08 
    5260 9.4906159e+08 
    5270 9.6657182e+08 
    5280 9.5895841e+08 
    5290 9.2639582e+08 
    5300 9.688141e+08 
    5310 9.6995207e+08 
    5320 9.861468e+08 
    5330 1.0244147e+09 
    5340 9.4755453e+08 
    5350 9.3284274e+08 
    5360 9.3950494e+08 
    5370 9.9350924e+08 
    5380 9.9221668e+08 
    5390 9.3370943e+08 
    5400 9.6166353e+08 
    5410 9.3784578e+08 
    5420 9.7393815e+08 
    5430 9.6941333e+08 
    5440 9.8976954e+08 
    5450 9.2014827e+08 
    5460 8.9484024e+08 
    5470 9.9190426e+08 
    5480 9.5644965e+08 
    5490 9.4679553e+08 
    5500 9.3108535e+08 
    5510 9.3804015e+08 
    5520 9.1666293e+08 
    5530 9.5525045e+08 
    5540 9.8048903e+08 
    5550 9.4964816e+08 
    5560 9.9668974e+08 
    5570 9.4573742e+08 
    5580 9.1796656e+08 
    5590 1.0043429e+09 
    5600 9.3802369e+08 
    5610 9.1355589e+08 
    5620 9.6358186e+08 
    5630 9.7160277e+08 
    5640 9.4585143e+08 
    5650 9.7970167e+08 
    5660 9.7990256e+08 
    5670 9.5696879e+08 
    5680 9.8217753e+08 
    5690 9.8559039e+08 
    5700 9.6213624e+08 
    5710 9.498356e+08 
    5720 9.0618242e+08 
    5730 9.4968252e+08 
    5740 9.7657371e+08 
    5750 9.8161825e+08 
    5760 9.1576808e+08 
    5770 9.2979709e+08 
    5780 9.5208531e+08 
    5790 9.5816405e+08 
    5800 9.7743566e+08 
    5810 9.7877565e+08 
    5820 9.1598356e+08 
    5830 9.1607964e+08 
    5840 9.4176525e+08 
    5850 9.4651762e+08 
    5860 9.8033672e+08 
    5870 9.2971934e+08 
    5880 9.6325929e+08 
    5890 9.7501715e+08 
    5900 9.5015706e+08 
    5910 1.0157929e+09 
    5920 9.5582313e+08 
    5930 9.052676e+08 
    5940 9.452684e+08 
    5950 9.3932134e+08 
    5960 9.6814085e+08 
    5970 9.6548718e+08 
    5980 9.6546068e+08 
    5990 9.4281104e+08 
    6000 9.5217543e+08 
    6010 9.7849014e+08 
    6020 1.0020477e+09 
    6030 9.7139512e+08 
    6040 9.6587779e+08 
    6050 9.8720045e+08 
    6060 9.8992192e+08 
    6070 9.9083099e+08 
    6080 9.9525676e+08 
    6090 9.8721444e+08 
    6100 1.0082167e+09 
    6110 9.5374714e+08 
    6120 9.0886042e+08 
    6130 9.686011e+08 
    6140 9.9141247e+08 
    6150 9.5871701e+08 
    6160 9.7136307e+08 
    6170 9.3049563e+08 
    6180 9.1348133e+08 
    6190 9.503685e+08 
    6200 9.5775083e+08 
    6210 9.0840842e+08 
    6220 9.589994e+08 
    6230 9.6507177e+08 
    6240 9.5006113e+08 
    6250 9.752887e+08 
    6260 9.5989922e+08 
    6270 9.7758541e+08 
    6280 9.8269724e+08 
    6290 9.4359387e+08 
    6300 9.4137923e+08 
    6310 9.7694392e+08 
    6320 9.2339718e+08 
    6330 9.4794688e+08 
    6340 1.0317459e+09 
    6350 9.4705884e+08 
    6360 9.9560594e+08 
    6370 9.3312065e+08 
    6380 9.9325516e+08 
    6390 9.645211e+08 
    6400 9.8250574e+08 
    6410 9.4567159e+08 
    6420 9.2344227e+08 
    6430 9.6927317e+08 
    6440 9.745771e+08 
    6450 9.3407415e+08 
    6460 9.4892065e+08 
    6470 9.2411936e+08 
    6480 9.7118983e+08 
    6490 9.460383e+08 
    6500 9.5969028e+08 
    6510 9.6047986e+08 
    6520 9.398836e+08 
    6530 9.6249416e+08 
    6540 9.3468265e+08 
    6550 9.5841937e+08 
    6560 9.5818084e+08 
    6570 9.4061233e+08 
    6580 9.5303927e+08 
    6590 9.4875487e+08 
    6600 9.6997678e+08 
    6610 9.9427583e+08 
    6620 9.4183101e+08 
    6630 9.6323794e+08 
    6640 9.3946847e+08 
    6650 9.6289371e+08 
    6660 9.2858101e+08 
    6670 9.7711183e+08 
    6680 9.7976329e+08 
    6690 9.5999162e+08 
    6700 9.7808499e+08 
    6710 9.4022874e+08 
    6720 9.7633572e+08 
    6730 9.660858e+08 
    6740 9.670397e+08 
    6750 9.2726217e+08 
    6760 9.0586765e+08 
    6770 9.8504149e+08 
    6780 9.4529016e+08 
    6790 9.515841e+08 
    6800 9.0865699e+08 
    6810 9.2473527e+08 
    6820 9.0358487e+08 
    6830 9.6590994e+08 
    6840 9.5093666e+08 
    6850 9.3138726e+08 
    6860 9.2586362e+08 
    6870 9.4337447e+08 
    6880 9.2692231e+08 
    6890  9.64011e+08 
    6900 9.6887754e+08 
    6910 9.3710323e+08 
    6920 9.0411336e+08 
    6930 1.0024608e+09 
    6940 9.5113503e+08 
    6950 9.4215889e+08 
    6960 9.3795332e+08 
    6970 9.5238659e+08 
    6980 9.2025784e+08 
    6990 9.7432435e+08 
    7000 9.2851966e+08 
    7010 9.284746e+08 
    7020 9.0799199e+08 
    7030 9.5128722e+08 
    7040 9.2351363e+08 
    7050 9.4620547e+08 
    7060 9.2474436e+08 
    7070 9.4614155e+08 
    7080 9.7252538e+08 
    7090 9.3004604e+08 
    7100 1.0039877e+09 
    7110 9.6157943e+08 
    7120 9.5760234e+08 
    7130 9.820552e+08 
    7140 9.9687255e+08 
    7150 9.2425098e+08 
    7160 9.8898025e+08 
    7170 9.7370206e+08 
    7180 9.4835335e+08 
    7190 9.4968536e+08 
    7200 9.379089e+08 
    7210 9.4566068e+08 
    7220 9.1552691e+08 
    7230 9.2021918e+08 
    7240 9.8006468e+08 
    7250 9.5063775e+08 
    7260 9.5552765e+08 
    7270 9.5696095e+08 
    7280 9.443327e+08 
    7290 1.0025121e+09 
    7300 9.2877701e+08 
    7310 9.2738587e+08 
    7320 9.714735e+08 
    7330 9.4828736e+08 
    7340 9.9003029e+08 
    7350 1.0045232e+09 
    7360 9.5381495e+08 
    7370 9.4114521e+08 
    7380 9.8539636e+08 
    7390 9.5839288e+08 
    7400 9.3540659e+08 
    7410 9.7727118e+08 
    7420 9.4770939e+08 
    7430 9.650336e+08 
    7440 9.5688049e+08 
    7450 1.0182213e+09 
    7460 9.9414582e+08 
    7470 9.2518108e+08 
    7480 1.0081775e+09 
    7490 9.1610856e+08 
    7500 9.7618611e+08 
    7510 9.5197278e+08 
    7520 9.5338541e+08 
    7530 9.9206452e+08 
    7540 9.7196171e+08 
    7550 9.9067154e+08 
    7560 9.794846e+08 
    7570 9.5991162e+08 
    7580 9.9660053e+08 
    7590 9.6629937e+08 
    7600 9.375408e+08 
    7610 9.8256764e+08 
    7620 9.6202934e+08 
    7630 9.6701324e+08 
    7640 9.6350469e+08 
    7650 9.7318468e+08 
    7660 9.4916548e+08 
    7670 9.6431603e+08 
    7680 9.2970441e+08 
    7690 1.0153729e+09 
    7700 9.7175075e+08 
    7710 9.8116711e+08 
    7720 9.7941016e+08 
    7730 9.8442514e+08 
    7740 9.5457466e+08 
    7750 9.6392107e+08 
    7760 9.7129564e+08 
    7770 9.789027e+08 
    7780 9.1424226e+08 
    7790 9.7628671e+08 
    7800 9.7491929e+08 
    7810 9.7547145e+08 
    7820 9.6687359e+08 
    7830 1.0042556e+09 
    7840 9.8837246e+08 
    7850 9.7717292e+08 
    7860 9.944285e+08 
    7870 9.5311921e+08 
    7880 9.2527916e+08 
    7890 9.2927454e+08 
    7900 9.3979891e+08 
    7910 9.8770013e+08 
    7920 9.6636078e+08 
    7930 9.7681234e+08 
    7940 9.8669001e+08 
    7950 9.6162431e+08 
    7960 9.734191e+08 
    7970 9.5169968e+08 
    7980 9.6202814e+08 
    7990 9.6738192e+08 
    8000 9.615977e+08 
    8010 9.9609625e+08 
    8020 9.6977024e+08 
    8030 1.002829e+09 
    8040 9.8161431e+08 
    8050 1.001977e+09 
    8060 9.8256895e+08 
    8070 9.7372752e+08 
    8080 9.6382154e+08 
    8090 9.4376689e+08 
    8100 9.8113147e+08 
    8110 9.964035e+08 
    8120 9.2755516e+08 
    8130 9.5248012e+08 
    8140 9.6857522e+08 
    8150 9.2343826e+08 
    8160 9.6813898e+08 
    8170 9.5331421e+08 
    8180 9.6218689e+08 
    8190 9.8116542e+08 
    8200 9.6010855e+08 
    8210 9.4674666e+08 
    8220 9.7367745e+08 
    8230 9.6161521e+08 
    8240 1.0006171e+09 
    8250 9.8003933e+08 
    8260 9.6587454e+08 
    8270 1.0055323e+09 
    8280 9.7487732e+08 
    8290 9.7450096e+08 
    8300 9.4402293e+08 
    8310 9.423843e+08 
    8320 9.6618392e+08 
    8330 9.546286e+08 
    8340 9.8699845e+08 
    8350 9.4426969e+08 
    8360 9.425366e+08 
    8370 9.3953388e+08 
    8380 9.2668387e+08 
    8390 9.6651653e+08 
    8400 9.9020016e+08 
    8410 9.7487952e+08 
    8420 9.5951471e+08 
    8430 9.1652019e+08 
    8440 9.3563891e+08 
    8450 9.464012e+08 
    8460 9.1174939e+08 
    8470 9.3678057e+08 
    8480 9.6474201e+08 
    8490 9.4934724e+08 
    8500 9.6669421e+08 
    8510 9.5665601e+08 
    8520 9.0142627e+08 
    8530 9.4896639e+08 
    8540 9.5658249e+08 
    8550 8.7928353e+08 
    8560 9.219403e+08 
    8570 9.5066297e+08 
    8580 9.562219e+08 
    8590 9.4912613e+08 
    8600 9.5758381e+08 
    8610 9.6524228e+08 
    8620 9.3449953e+08 
    8630 9.4139825e+08 
    8640 9.6423373e+08 
    8650 9.4449417e+08 
    8660 9.1367979e+08 
    8670 9.4676161e+08 
    8680 9.6829626e+08 
    8690 9.7019916e+08 
    8700 8.9331012e+08 
    8710 9.7616496e+08 
    8720 9.6739895e+08 
    8730 9.608203e+08 
    8740 9.6163351e+08 
    8750 9.6420143e+08 
    8760 9.487618e+08 
    8770 9.6355153e+08 
    8780 9.6274585e+08 
    8790 9.5227553e+08 
    8800 9.4072509e+08 
    8810 9.7087232e+08 
    8820 9.4925729e+08 
    8830 9.5910828e+08 
    8840 9.3592486e+08 
    8850 9.3198651e+08 
    8860 9.498508e+08 
    8870 9.5793326e+08 
    8880 9.8795419e+08 
    8890 9.285014e+08 
    8900 9.3648779e+08 
    8910 9.3476455e+08 
    8920 9.5334651e+08 
    8930 9.3418169e+08 
    8940 9.7387177e+08 
    8950 1.0045876e+09 
    8960 9.6762745e+08 
    8970 9.3939589e+08 
    8980 9.7995186e+08 
    8990 9.3151926e+08 
    9000 9.4994452e+08 
    9010 9.3333915e+08 
    9020 9.7429241e+08 
    9030 9.7839767e+08 
    9040 9.6817389e+08 
    9050 9.666743e+08 
    9060 9.3050381e+08 
    9070 9.5609014e+08 
    9080 9.666168e+08 
    9090 9.916461e+08 
    9100 9.230579e+08 
    9110 9.6063211e+08 
    9120 9.935042e+08 
    9130 9.5875063e+08 
    9140  9.42592e+08 
    9150 9.842629e+08 
    9160 9.9700708e+08 
    9170 9.7237251e+08 
    9180 9.8749631e+08 
    9190 9.5156631e+08 
    9200 9.7879455e+08 
    9210 9.7237805e+08 
    9220 1.0205422e+09 
    9230 9.5420598e+08 
    9240 9.6341079e+08 
    9250 9.5415477e+08 
    9260 9.5449504e+08 
    9270 9.1900176e+08 
    9280 9.6143837e+08 
    9290 9.6121206e+08 
    9300 9.4625156e+08 
    9310 9.8151729e+08 
    9320 9.9769036e+08 
    9330 9.7504319e+08 
    9340 9.8256233e+08 
    9350 9.7910096e+08 
    9360 1.0078396e+09 
    9370 9.6253735e+08 
    9380 9.8730291e+08 
    9390 9.7070396e+08 
    9400 9.8258789e+08 
    9410 9.7550519e+08 
    9420 9.4649201e+08 
    9430 9.6964027e+08 
    9440 9.5199484e+08 
    9450 9.5702891e+08 
    9460 9.2136173e+08 
    9470 9.3114328e+08 
    9480 9.6040205e+08 
    9490 9.7320365e+08 
    9500 9.7639768e+08 
    9510 9.3857085e+08 
    9520 9.5264773e+08 
    9530 9.490356e+08 
    9540 9.4368562e+08 
    9550 9.5896282e+08 
    9560 9.7077031e+08 
    9570 9.5621413e+08 
    9580 9.7632514e+08 
    9590 9.5948914e+08 
    9600 9.7438671e+08 
    9610 9.8149362e+08 
    9620 9.3907538e+08 
    9630 9.4843997e+08 
    9640 9.3863717e+08 
    9650 9.6501799e+08 
    9660 9.7575261e+08 
    9670 9.9115288e+08 
    9680 9.6070388e+08 
    9690 8.915399e+08 
    9700 9.4093049e+08 
    9710 9.5254717e+08 
    9720 9.1427385e+08 
    9730 1.0069767e+09 
    9740 9.3810425e+08 
    9750 9.535519e+08 
    9760 9.7855491e+08 
    9770 9.6334331e+08 
    9780 9.3150132e+08 
    9790 9.4680567e+08 
    9800 9.8328593e+08 
    9810 9.8447219e+08 
    9820 9.9381387e+08 
    9830 9.3463887e+08 
    9840 9.3627702e+08 
    9850 9.6278206e+08 
    9860 9.111552e+08 
    9870 9.9325286e+08 
    9880 9.2699815e+08 
    9890 1.0054921e+09 
    9900 9.251268e+08 
    9910 9.8256551e+08 
    9920 9.8191693e+08 
    9930 9.4800918e+08 
    9940 9.6635692e+08 
    9950 9.2295359e+08 
    9960 9.3711899e+08 
    9970 9.3499605e+08 
    9980 9.4806334e+08 
    9990 9.3312231e+08 
   10000 9.6559196e+08 
   10010 9.5657145e+08 
   10020 9.5924973e+08 
   10030 9.8468175e+08 
   10040 9.4559321e+08 
   10050 9.6607731e+08 
   10060 9.8661733e+08 
   10070 9.2037098e+08 
   10080 9.6713203e+08 
   10090 9.591653e+08 
   10100 9.8507497e+08 
   10110 9.6911365e+08 
   10120 9.7990859e+08 
   10130 9.3462859e+08 
   10140 9.8141477e+08 
   10150 9.7992398e+08 
   10160 9.6461212e+08 
   10170 9.4305043e+08 
   10180 9.7376624e+08 
   10190 9.5777488e+08 
   10200 1.020171e+09 
   10210 9.6518704e+08 
   10220 9.724064e+08 
   10230 9.4089317e+08 
   10240 9.5359116e+08 
   10250 9.1643332e+08 
   10260 9.8218766e+08 
   10270 1.0250034e+09 
   10280 9.7081556e+08 
   10290 9.4488814e+08 
   10300 9.4273414e+08 
   10310 9.6218069e+08 
   10320 9.2925478e+08 
   10330 9.7781379e+08 
   10340 9.9291599e+08 
   10350 9.7745045e+08 
   10360 9.4761585e+08 
   10370 9.8339733e+08 
   10380 9.1339445e+08 
   10390 9.0926404e+08 
   10400 9.5808021e+08 
   10410 8.7669722e+08 
   10420 9.4993847e+08 
   10430 9.8445909e+08 
   10440 9.6689176e+08 
   10450 9.6902286e+08 
   10460 9.4793604e+08 
   10470 1.0076361e+09 
   10480 9.5613182e+08 
   10490 1.0019899e+09 
   10500 9.6325366e+08 
   10510 9.4005795e+08 
   10520 9.7092207e+08 
   10530 9.5014609e+08 
   10540 9.2812704e+08 
   10550 1.0164365e+09 
   10560 9.8644675e+08 
   10570 9.6847119e+08 
   10580 9.8674614e+08 
   10590 9.6592165e+08 
   10600 9.5752122e+08 
   10610 9.4082714e+08 
   10620 9.2683399e+08 
   10630 9.5169515e+08 
   10640 1.0017409e+09 
   10650 9.8610836e+08 
   10660 1.0369239e+09 
   10670 9.5897132e+08 
   10680 9.2376851e+08 
   10690 9.4994061e+08 
   10700 9.4091835e+08 
   10710 9.3247511e+08 
   10720 9.4801197e+08 
   10730 9.8751515e+08 
   10740 9.9282933e+08 
   10750 9.7526219e+08 
   10760 9.2810117e+08 
   10770 9.8824884e+08 
   10780 9.4810927e+08 
   10790 9.4375494e+08 
   10800 9.3096977e+08 
   10810 9.5672392e+08 
   10820 9.2244479e+08 
   10830 9.6234134e+08 
   10840 9.6498174e+08 
   10850 9.5640485e+08 
   10860 9.4473843e+08 
   10870 9.7988135e+08 
   10880 1.0142405e+09 
   10890 9.7955551e+08 
   10900 9.6463931e+08 
   10910 1.0234818e+09 
   10920 9.5296501e+08 
   10930 1.0015578e+09 
   10940 9.4708385e+08 
   10950 9.9060864e+08 
   10960 9.6068386e+08 
   10970 9.6116362e+08 
   10980 1.0038628e+09 
   10990 9.6406571e+08 
   11000 9.7455464e+08 
   11010 9.1321112e+08 
   11020 9.299043e+08 
   11030 9.7609063e+08 
   11040 9.3183776e+08 
   11050 9.6326995e+08 
   11060 9.4461798e+08 
   11070 9.3631607e+08 
   11080 9.6464656e+08 
   11090  9.62926e+08 
   11100 9.6608832e+08 
   11110 1.0008179e+09 
   11120 9.173901e+08 
   11130 9.7753345e+08 
   11140 9.5650002e+08 
   11150 9.7995164e+08 
   11160 9.4276437e+08 
   11170 9.7477021e+08 
   11180 9.5629609e+08 
   11190 9.2923541e+08 
   11200 9.9056449e+08 
   11210 1.0347766e+09 
   11220 9.6862077e+08 
   11230 9.217388e+08 
   11240 9.2482959e+08 
   11250 9.6294208e+08 
   11260 9.7230745e+08 
   11270 9.7086725e+08 
   11280 9.6922955e+08 
   11290 9.409681e+08 
   11300 9.2107758e+08 
   11310 9.3763951e+08 
   11320 9.4358488e+08 
   11330 9.9373703e+08 
   11340 9.4785481e+08 
   11350 9.5231455e+08 
   11360 9.0312019e+08 
   11370 9.5836922e+08 
   11380 9.6579535e+08 
   11390 9.7833896e+08 
   11400 9.923381e+08 
   11410 9.5575972e+08 
   11420 9.463695e+08 
   11430 9.5350228e+08 
   11440 9.6771214e+08 
   11450 9.2772679e+08 
   11460 9.7484613e+08 
   11470 1.0074621e+09 
   11480 9.6704511e+08 
   11490 9.3868372e+08 
   11500 9.4789068e+08 
   11510 9.6335572e+08 
   11520 9.4166769e+08 
   11530 9.9194043e+08 
   11540 1.0098053e+09 
   11550 9.522985e+08 
   11560 9.5012616e+08 
   11570 9.4094248e+08 
   11580 9.6996933e+08 
   11590 9.3515076e+08 
   11600 9.6623523e+08 
   11610 9.688835e+08 
   11620 9.8259391e+08 
   11630 9.5888909e+08 
   11640 9.9435427e+08 
   11650 9.1497465e+08 
   11660 1.004816e+09 
   11670 9.6352565e+08 
   11680 9.2929865e+08 
   11690 9.5403312e+08 
   11700 9.7144646e+08 
   11710 9.4256174e+08 
   11720 9.6918399e+08 
   11730 9.8472254e+08 
   11740 9.8846436e+08 
   11750 9.3330005e+08 
   11760 9.6794962e+08 
   11770 9.5940515e+08 
   11780 9.7680748e+08 
   11790 9.6388928e+08 
   11800 9.8847934e+08 
   11810 9.9144805e+08 
   11820 9.3888897e+08 
   11830 9.6405594e+08 
   11840 9.6388115e+08 
   11850 9.3575304e+08 
   11860 9.6477691e+08 
   11870 9.7020508e+08 
   11880 9.1868032e+08 
   11890 9.445862e+08 
   11900 9.5718661e+08 
   11910 9.6359935e+08 
   11920 9.6706851e+08 
   11930 9.4008832e+08 
   11940 9.6968739e+08 
   11950 9.1615334e+08 
   11960 9.5218732e+08 
   11970 9.7174105e+08 
   11980 9.396057e+08 
   11990 9.5761367e+08 
   12000 9.8992605e+08 
   12010 9.6172653e+08 
   12020 1.0076272e+09 
   12030 9.272368e+08 
   12040 9.4413709e+08 
   12050 9.8050175e+08 
   12060 9.2977947e+08 
   12070 9.3781299e+08 
   12080 9.5149657e+08 
   12090 9.3153781e+08 
   12100 9.7387076e+08 
   12110 9.3738195e+08 
   12120 9.5032991e+08 
   12130 9.2153597e+08 
   12140 9.7748467e+08 
   12150 9.7037858e+08 
   12160 9.6430771e+08 
   12170 9.3047626e+08 
   12180 9.3604375e+08 
   12190 9.5584344e+08 
   12200 9.7179192e+08 
   12210 9.5827019e+08 
   12220 9.7678459e+08 
   12230 9.979783e+08 
   12240 9.7667673e+08 
   12250 9.6200463e+08 
   12260 9.4502164e+08 
   12270 9.4234941e+08 
   12280 9.7790025e+08 
   12290 9.3411629e+08 
   12300 1.0080523e+09 
   12310 9.5996354e+08 
   12320 9.3637954e+08 
   12330 9.0974905e+08 
   12340 9.7046495e+08 
   12350 9.536384e+08 
   12360 9.3228758e+08 
   12370 9.5333522e+08 
   12380 9.719276e+08 
   12390 9.732276e+08 
   12400 9.7531905e+08 
   12410 9.8948457e+08 
   12420 9.8443948e+08 
   12430 9.6249743e+08 
   12440 9.4446319e+08 
   12450 1.0181712e+09 
   12460 9.0005639e+08 
   12470 9.3393664e+08 
   12480 9.6185954e+08 
   12490 9.427707e+08 
   12500 9.6237889e+08 
   12510 9.6390134e+08 
   12520 9.3637636e+08 
   12530 9.6532082e+08 
   12540 9.3666252e+08 
   12550 9.7334552e+08 
   12560 9.6244095e+08 
   12570 9.9905333e+08 
   12580 9.4365538e+08 
   12590 9.9904133e+08 
   12600 9.4942989e+08 
   12610 9.2743653e+08 
   12620 9.5660114e+08 
   12630 9.7865193e+08 
   12640 9.4110873e+08 
   12650 9.4871431e+08 
   12660 9.7092867e+08 
   12670 9.5457097e+08 
   12680 9.5262944e+08 
   12690 9.6641618e+08 
   12700 9.7505574e+08 
   12710 9.7131248e+08 
   12720 9.3918292e+08 
   12730 9.3594747e+08 
   12740 9.657977e+08 
   12750 9.8694199e+08 
   12760 9.5627833e+08 
   12770 9.6091646e+08 
   12780 9.9364902e+08 
   12790 9.6009114e+08 
   12800 9.6078084e+08 
   12810 9.3279278e+08 
   12820 9.2088609e+08 
   12830 9.8518197e+08 
   12840 9.8739293e+08 
   12850 9.3509181e+08 
   12860 9.7205289e+08 
   12870 9.5121413e+08 
   12880 9.8053303e+08 
   12890 9.8264694e+08 
   12900 9.6745763e+08 
   12910 9.1861517e+08 
   12920 1.0013841e+09 
   12930 9.6415682e+08 
   12940 1.0053442e+09 
   12950 9.601566e+08 
   12960 9.6047944e+08 
   12970 9.8617671e+08 
   12980 9.522426e+08 
   12990 9.6765077e+08 
   13000 9.2194981e+08 
   13010 1.0311596e+09 
   13020 9.7913329e+08 
   13030 1.0008118e+09 
   13040 9.7118025e+08 
   13050 9.3767888e+08 
   13060 9.1948062e+08 
   13070 9.0166943e+08 
   13080 9.5857662e+08 
   13090 9.4368366e+08 
   13100 1.0070709e+09 
   13110 9.2811645e+08 
   13120 9.8048923e+08 
   13130 9.6355869e+08 
   13140 9.5183845e+08 
   13150 9.6086226e+08 
   13160 9.4096885e+08 
   13170 9.3369378e+08 
   13180 9.4211868e+08 
   13190 9.5373207e+08 
   13200 9.6361236e+08 
   13210 9.497062e+08 
   13220 9.4297886e+08 
   13230 9.362796e+08 
   13240 9.4641188e+08 
   13250 9.8635197e+08 
   13260 9.4061733e+08 
   13270 9.8631315e+08 
   13280 9.7355154e+08 
   13290 9.5350374e+08 
   13300 9.3445342e+08 
   13310 9.8189286e+08 
   13320 9.2357939e+08 
   13330 9.892886e+08 
   13340 9.7575366e+08 
   13350 9.8486593e+08 
   13360 9.7012868e+08 
   13370 9.4300465e+08 
   13380 9.7488246e+08 
   13390 9.3924318e+08 
   13400 9.5364739e+08 
   13410 9.7382715e+08 
   13420 9.1282084e+08 
   13430 9.6133684e+08 
   13440 9.8672656e+08 
   13450 9.7063736e+08 
   13460 9.6306351e+08 
   13470 9.8516048e+08 
   13480 9.8373078e+08 
   13490 9.5968034e+08 
   13500 9.5595078e+08 
   13510 9.9343344e+08 
   13520 9.350723e+08 
   13530 9.9148245e+08 
   13540 9.7880219e+08 
   13550 9.6498121e+08 
   13560 9.7137198e+08 
   13570 9.6992955e+08 
   13580 9.6694936e+08 
   13590 9.8155409e+08 
   13600 9.7287893e+08 
   13610 9.8938494e+08 
   13620 9.6838391e+08 
   13630 9.1731949e+08 
   13640 9.2147335e+08 
   13650 9.2842104e+08 
   13660 1.0039134e+09 
   13670 9.6171331e+08 
   13680 9.7397383e+08 
   13690 9.6173304e+08 
   13700 9.6587664e+08 
   13710 9.2818772e+08 
   13720 9.6425732e+08 
   13730 9.2135603e+08 
   13740 9.5863555e+08 
   13750 9.7832779e+08 
   13760 9.6726407e+08 
   13770 9.1990522e+08 
   13780 9.6360292e+08 
   13790 9.6392269e+08 
   13800 1.0089803e+09 
   13810 9.5863198e+08 
   13820 9.8388772e+08 
   13830 9.8312246e+08 
   13840 9.8629019e+08 
   13850 9.8951823e+08 
   13860 9.4549093e+08 
   13870 9.5939919e+08 
   13880 9.304319e+08 
   13890 9.5927125e+08 
   13900 9.1943035e+08 
   13910 9.3702055e+08 
   13920 9.6118246e+08 
   13930 9.1701261e+08 
   13940 9.5745428e+08 
   13950 9.3029218e+08 
   13960 9.3670365e+08 
   13970 9.5746897e+08 
   13980 9.6855742e+08 
   13990 9.6967434e+08 
   14000 9.0012327e+08 
   14010 9.3010711e+08 
   14020 9.5421403e+08 
   14030 9.7165937e+08 
   14040 9.4162764e+08 
   14050 9.5672974e+08 
   14060 9.4000371e+08 
   14070 9.6594969e+08 
   14080 9.7387327e+08 
   14090 9.9894927e+08 
   14100 9.6441247e+08 
   14110 9.5156588e+08 
   14120 9.3880941e+08 
   14130 9.6268526e+08 
   14140 9.763648e+08 
   14150 9.666644e+08 
   14160 9.689558e+08 
   14170 9.2882173e+08 
   14180 9.5173752e+08 
   14190 9.1379578e+08 
   14200 9.6203791e+08 
   14210 9.5564566e+08 
   14220 9.630476e+08 
   14230 9.7502596e+08 
   14240 9.9971012e+08 
   14250 9.890662e+08 
   14260 9.7506443e+08 
   14270 9.6330455e+08 
   14280 9.320144e+08 
   14290 9.7823721e+08 
   14300 9.3408855e+08 
   14310 9.2657713e+08 
   14320 9.5458516e+08 
   14330 9.568922e+08 
   14340 9.7589359e+08 
   14350 9.3384162e+08 
   14360 9.6914793e+08 
   14370 9.4289976e+08 
   14380 9.220881e+08 
   14390 9.5809028e+08 
   14400 9.6107126e+08 
   14410 9.7712672e+08 
   14420 9.7260196e+08 
   14430 9.432399e+08 
   14440 9.3220986e+08 
   14450 9.6077161e+08 
   14460 9.468022e+08 
   14470 9.4748118e+08 
   14480  9.62392e+08 
   14490 9.0243645e+08 
   14500 9.3860693e+08 
   14510 1.0051233e+09 
   14520 9.7068254e+08 
   14530 9.9411974e+08 
   14540 9.7922977e+08 
   14550 1.0158642e+09 
   14560 9.8072101e+08 
   14570 9.762258e+08 
   14580 9.5315159e+08 
   14590 9.6771029e+08 
   14600 9.5806001e+08 
   14610 1.0247098e+09 
   14620 9.546829e+08 
   14630 9.9949816e+08 
   14640 1.0134202e+09 
   14650 9.4626456e+08 
   14660 9.472144e+08 
   14670 9.6257783e+08 
   14680 9.282881e+08 
   14690 9.4727873e+08 
   14700  9.93032e+08 
   14710 9.4199101e+08 
   14720 8.8842044e+08 
   14730 9.7137404e+08 
   14740 9.4528742e+08 
   14750 9.9683402e+08 
   14760 9.6306802e+08 
   14770 9.4478537e+08 
   14780 9.585539e+08 
   14790 9.1875556e+08 
   14800 9.188204e+08 
   14810 9.3134205e+08 
   14820 9.7674261e+08 
   14830 9.7859615e+08 
   14840 9.4688863e+08 
   14850 9.8403716e+08 
   14860 9.4014115e+08 
   14870 9.8902283e+08 
   14880 1.018294e+09 
   14890 9.6275148e+08 
   14900 9.5921472e+08 
   14910 9.3425655e+08 
   14920 9.3960626e+08 
   14930 9.4812706e+08 
   14940 9.4532185e+08 
   14950 9.5146482e+08 
   14960 9.4485478e+08 
   14970 9.5909289e+08 
   14980 9.6390395e+08 
   14990 9.1833089e+08 
   15000 1.0031439e+09 
   15010 9.6158676e+08 
   15020 9.0285951e+08 
   15030 9.5713169e+08 
   15040 9.4422608e+08 
   15050 9.783934e+08 
   15060 9.9153638e+08 
   15070 9.4905273e+08 
   15080 9.839157e+08 
   15090 9.2770378e+08 
   15100 9.576653e+08 
   15110 9.8204341e+08 
   15120 8.9770157e+08 
   15130 9.5058134e+08 
   15140 9.2682934e+08 
   15150 9.2380275e+08 
   15160 9.4782379e+08 
   15170 9.4130745e+08 
   15180 9.5539028e+08 
   15190 9.6295504e+08 
   15200 9.3651035e+08 
   15210 9.2986766e+08 
   15220 9.1739128e+08 
   15230 9.2201908e+08 
   15240 9.7356213e+08 
   15250 9.504592e+08 
   15260 9.9804655e+08 
   15270 9.9391673e+08 
   15280 9.7403911e+08 
   15290 9.498831e+08 
   15300 9.4548459e+08 
   15310 9.4274266e+08 
   15320 9.542374e+08 
   15330 9.8232312e+08 
   15340 9.4510909e+08 
   15350 9.3021426e+08 
   15360 9.7041778e+08 
   15370 9.6966159e+08 
   15380 9.4602905e+08 
   15390 9.8795032e+08 
   15400 9.5010874e+08 
   15410 9.5112263e+08 
   15420 9.6611878e+08 
   15430 9.2780594e+08 
   15440 9.177566e+08 
   15450 9.6116288e+08 
   15460 9.6363811e+08 
   15470 9.7564113e+08 
   15480 9.3567814e+08 
   15490 9.290303e+08 
   15500 9.5501117e+08 
   15510 9.3495511e+08 
   15520 9.7531694e+08 
   15530 9.6381959e+08 
   15540 9.274254e+08 
   15550 1.0117677e+09 
   15560 9.8406486e+08 
   15570 9.9101085e+08 
   15580 9.7165731e+08 
   15590 9.4594782e+08 
   15600 9.524965e+08 
   15610 9.3476705e+08 
   15620 9.7482206e+08 
   15630 9.2601826e+08 
   15640 9.5464759e+08 
   15650 9.4117504e+08 
   15660 9.6594993e+08 
   15670 9.6497693e+08 
   15680 9.9424173e+08 
   15690 9.7148839e+08 
   15700 1.0014604e+09 
   15710 9.4887991e+08 
   15720 9.2634184e+08 
   15730 9.4099993e+08 
   15740 9.5146016e+08 
   15750 9.1946121e+08 
   15760 9.6770362e+08 
   15770 9.2595256e+08 
   15780 9.107673e+08 
   15790 9.8905677e+08 
   15800 9.7152566e+08 
   15810 9.8453448e+08 
   15820 9.7615127e+08 
   15830 9.9918926e+08 
   15840 9.6161766e+08 
   15850 8.950838e+08 
   15860 9.8387093e+08 
   15870 1.0263906e+09 
   15880 9.5637738e+08 
   15890 9.4319303e+08 
   15900 9.5117395e+08 
   15910 9.2342189e+08 
   15920 9.7007419e+08 
   15930 9.5695656e+08 
   15940 9.4553345e+08 
   15950 9.7362847e+08 
   15960 9.7513179e+08 
   15970 9.6887031e+08 
   15980 1.0056881e+09 
   15990 9.624742e+08 
   16000 9.2941899e+08 
   16010 9.9541958e+08 
   16020 9.7517784e+08 
   16030 1.0083662e+09 
   16040 9.994725e+08 
   16050 9.6130662e+08 
   16060 9.7026468e+08 
   16070 9.6777715e+08 
   16080 9.6280344e+08 
   16090 9.4728452e+08 
   16100 9.6837065e+08 
   16110 9.2829487e+08 
   16120 9.8754559e+08 
   16130 9.3582129e+08 
   16140 9.8217892e+08 
   16150 9.5413472e+08 
   16160 9.7614933e+08 
   16170 9.3444713e+08 
   16180 9.6005594e+08 
   16190 9.6859803e+08 
   16200 1.0221386e+09 
   16210 9.4595317e+08 
   16220 9.7134145e+08 
   16230 9.9837498e+08 
   16240 9.2405085e+08 
   16250 9.9677826e+08 
   16260 9.4617899e+08 
   16270 9.5557295e+08 
   16280 1.0042006e+09 
   16290 1.0205215e+09 
   16300 9.6071868e+08 
   16310 9.580919e+08 
   16320 9.4772305e+08 
   16330 9.2814334e+08 
   16340 9.8117058e+08 
   16350 9.9379316e+08 
   16360 9.5295108e+08 
   16370 9.4606118e+08 
   16380 9.4459149e+08 
   16390 9.6547249e+08 
   16400 9.4805995e+08 
   16410 9.750762e+08 
   16420 9.5197972e+08 
   16430 1.0305144e+09 
   16440 9.4733275e+08 
   16450 9.735143e+08 
   16460 9.3675276e+08 
   16470 9.6793919e+08 
   16480 9.1822925e+08 
   16490 9.4705262e+08 
   16500 9.7580695e+08 
   16510 9.902057e+08 
   16520 9.6720678e+08 
   16530 9.6512954e+08 
   16540 9.3599659e+08 
   16550 9.6452971e+08 
   16560 9.5609491e+08 
   16570 9.5663272e+08 
   16580 9.4658767e+08 
   16590 9.4264583e+08 
   16600 9.6804542e+08 
   16610 9.348948e+08 
   16620 9.3601277e+08 
   16630 9.8464072e+08 
   16640 9.3659497e+08 
   16650 1.0103981e+09 
   16660 9.6327434e+08 
   16670 9.6370682e+08 
   16680 9.3063764e+08 
   16690 9.6153683e+08 
   16700 9.4258819e+08 
   16710 9.115746e+08 
   16720 1.0376102e+09 
   16730 9.5841243e+08 
   16740 9.9753876e+08 
   16750 9.4741557e+08 
   16760 9.2756542e+08 
   16770 9.6020111e+08 
   16780 9.8851335e+08 
   16790 9.9311349e+08 
   16800 9.4466786e+08 
   16810 9.0882264e+08 
   16820 9.3611044e+08 
   16830 9.3358461e+08 
   16840 9.5304412e+08 
   16850 9.9431576e+08 
   16860 9.4536656e+08 
   16870 9.7880471e+08 
   16880 9.2430012e+08 
   16890 9.7400311e+08 
   16900 9.5502558e+08 
   16910 9.8451816e+08 
   16920 9.2432727e+08 
   16930 9.6328833e+08 
   16940 9.6578102e+08 
   16950 9.4995125e+08 
   16960 9.1827477e+08 
   16970 9.3233265e+08 
   16980 9.5957119e+08 
   16990 9.7101011e+08 
   17000 9.4164284e+08 
   17010 9.8246494e+08 
   17020 9.869334e+08 
   17030 9.3644759e+08 
   17040 9.5842279e+08 
   17050 1.0174083e+09 
   17060 9.6258114e+08 
   17070 9.4350976e+08 
   17080 9.4893915e+08 
   17090 9.9364163e+08 
   17100 9.7729832e+08 
   17110 9.7539443e+08 
   17120 9.8134118e+08 
   17130 9.7314695e+08 
   17140 9.5292686e+08 
   17150 9.8536919e+08 
   17160 9.562841e+08 
   17170 9.7984156e+08 
   17180 9.3898804e+08 
   17190 9.3184725e+08 
   17200 9.4716101e+08 
   17210 9.3875664e+08 
   17220 9.5164735e+08 
   17230 9.6322471e+08 
   17240 9.604103e+08 
   17250 9.5691969e+08 
   17260 9.6629806e+08 
   17270 9.2586341e+08 
   17280 9.2349853e+08 
   17290 9.3509181e+08 
   17300 9.5492274e+08 
   17310 9.3037289e+08 
   17320 9.7053979e+08 
   17330 9.4354103e+08 
   17340 9.4874344e+08 
   17350 9.2602777e+08 
   17360 9.6199781e+08 
   17370 9.7733134e+08 
   17380 9.7398521e+08 
   17390 1.0006263e+09 
   17400 9.7175319e+08 
   17410 9.4189596e+08 
   17420 9.6996556e+08 
   17430 1.0143441e+09 
   17440 9.8969224e+08 
   17450 9.3905655e+08 
   17460 9.7930966e+08 
   17470 9.3257131e+08 
   17480 9.3348984e+08 
   17490 9.2462932e+08 
   17500 9.740227e+08 
   17510 9.665899e+08 
   17520 9.5788611e+08 
   17530 9.8766232e+08 
   17540 9.8187215e+08 
   17550 9.5550253e+08 
   17560 9.7456818e+08 
   17570 9.8712719e+08 
   17580 9.3416354e+08 
   17590 9.7983007e+08 
   17600 9.6298134e+08 
   17610 9.6522867e+08 
   17620 9.8230315e+08 
   17630 9.8970321e+08 
   17640 9.5422751e+08 
   17650 1.0053333e+09 
   17660 9.4636262e+08 
   17670 9.4130307e+08 
   17680 9.5464302e+08 
   17690 9.818137e+08 
   17700 9.2876668e+08 
   17710 9.1904731e+08 
   17720 9.2526014e+08 
   17730 9.5408476e+08 
   17740 9.4654983e+08 
   17750 9.0677833e+08 
   17760 9.8640148e+08 
   17770 9.8194387e+08 
   17780 9.9316677e+08 
   17790 9.4345486e+08 
   17800 9.3117761e+08 
   17810 9.5787646e+08 
   17820 9.5762247e+08 
   17830 9.7442696e+08 
   17840 9.7523055e+08 
   17850 9.5192403e+08 
   17860 9.7449983e+08 
   17870 9.9501112e+08 
   17880 9.3108927e+08 
   17890 9.6251689e+08 
   17900 9.6236678e+08 
   17910 9.147068e+08 
   17920 8.9839444e+08 
   17930 9.4896017e+08 
   17940 9.5193053e+08 
   17950 1.0052195e+09 
   17960 9.5738691e+08 
   17970 9.7212456e+08 
   17980 9.8791736e+08 
   17990 9.5385573e+08 
   18000 9.5596001e+08 
   18010 9.5552708e+08 
   18020 9.9830018e+08 
   18030 9.2057038e+08 
   18040 9.3662264e+08 
   18050 9.9465731e+08 
   18060 9.4479087e+08 
   18070 9.6535997e+08 
   18080 9.6340083e+08 
   18090 9.5561197e+08 
   18100 9.7404633e+08 
   18110 9.4156545e+08 
   18120 1.0048367e+09 
   18130 9.4013978e+08 
   18140 9.4539506e+08 
   18150 9.1752545e+08 
   18160 1.0123276e+09 
   18170 9.1898704e+08 
   18180 9.8838786e+08 
   18190 9.5440178e+08 
   18200 9.1398101e+08 
   18210 9.4432348e+08 
   18220 9.4425667e+08 
   18230 9.2065581e+08 
   18240 9.3228395e+08 
   18250 9.6548128e+08 
   18260 9.7702139e+08 
   18270 9.6660925e+08 
   18280 9.7581643e+08 
   18290 9.406141e+08 
   18300  1.00328e+09 
   18310 9.6280849e+08 
   18320 9.9639687e+08 
   18330 9.6443636e+08 
   18340 9.617717e+08 
   18350 9.3771757e+08 
   18360 9.1729437e+08 
   18370 9.3996055e+08 
   18380 9.6498831e+08 
   18390 9.4667297e+08 
   18400 9.569307e+08 
   18410 9.4739326e+08 
   18420 9.140085e+08 
   18430 9.6498013e+08 
   18440 9.3327387e+08 
   18450 9.3875728e+08 
   18460 9.3886168e+08 
   18470 9.9805454e+08 
   18480 9.3298879e+08 
   18490 9.6469985e+08 
   18500 9.7313055e+08 
   18510 9.3442334e+08 
   18520 9.7560826e+08 
   18530 9.6770654e+08 
   18540 9.9570595e+08 
   18550 9.4441467e+08 
   18560 9.6739346e+08 
   18570 9.1960371e+08 
   18580 9.3861618e+08 
   18590 9.6593099e+08 
   18600 9.2674247e+08 
   18610 9.8468056e+08 
   18620 9.6506522e+08 
   18630 9.6807609e+08 
   18640 9.3402109e+08 
   18650 9.7309888e+08 
   18660 9.6781929e+08 
   18670 9.7243223e+08 
   18680 9.5076878e+08 
   18690 9.4565628e+08 
   18700 1.0500393e+09 
   18710 9.4145438e+08 
   18720 9.5209638e+08 
   18730 9.6058893e+08 
   18740 9.6352986e+08 
   18750 9.5077657e+08 
   18760 9.299418e+08 
   18770 9.8868017e+08 
   18780 1.0046049e+09 
   18790 9.4902505e+08 
   18800 9.6085803e+08 
   18810 9.6889748e+08 
   18820 9.6509669e+08 
   18830 9.3387143e+08 
   18840 9.9659322e+08 
   18850 9.7052047e+08 
   18860 9.617697e+08 
   18870 9.6418598e+08 
   18880 9.503417e+08 
   18890 9.5481532e+08 
   18900 9.4128061e+08 
   18910 9.2313056e+08 
   18920 1.0126609e+09 
   18930 1.0110309e+09 
   18940 9.4698071e+08 
   18950  9.19642e+08 
   18960 9.5710818e+08 
   18970 9.4592064e+08 
   18980 9.644309e+08 
   18990 9.4831775e+08 
   19000 9.4862057e+08 
   19010 9.8428524e+08 
   19020 9.8227442e+08 
   19030 9.6555923e+08 
   19040 9.7260414e+08 
   19050 9.7107267e+08 
   19060 9.6537366e+08 
   19070 1.0001779e+09 
   19080 9.9983907e+08 
   19090 9.6200499e+08 
   19100 9.8559687e+08 
   19110 9.502749e+08 
   19120 9.7172025e+08 
   19130  9.83729e+08 
   19140 9.4010913e+08 
   19150 9.7222355e+08 
   19160 9.5854431e+08 
   19170 9.8565049e+08 
   19180 9.5995706e+08 
   19190 9.269781e+08 
   19200 9.9449392e+08 
   19210 9.696515e+08 
   19220 9.7779272e+08 
   19230 9.5499832e+08 
   19240 9.5143991e+08 
   19250 9.4594399e+08 
   19260 9.303141e+08 
   19270 9.1877709e+08 
   19280 9.3390128e+08 
   19290 9.4863575e+08 
   19300 9.5755208e+08 
   19310 9.2413066e+08 
   19320 9.685822e+08 
   19330 9.7454328e+08 
   19340 9.3870652e+08 
   19350 9.2132189e+08 
   19360 9.397775e+08 
   19370 9.426181e+08 
   19380 9.5574621e+08 
   19390 9.2640707e+08 
   19400 9.6106645e+08 
   19410 9.6791766e+08 
   19420 9.1490249e+08 
   19430 9.463227e+08 
   19440 9.1610839e+08 
   19450 9.4911357e+08 
   19460 9.2041779e+08 
   19470 9.7424879e+08 
   19480 9.3076634e+08 
   19490 9.5600461e+08 
   19500 9.1173903e+08 
   19510 9.5327287e+08 
   19520  9.83086e+08 
   19530 9.6503436e+08 
   19540 9.9914659e+08 
   19550 9.5438821e+08 
   19560 9.4869372e+08 
   19570 9.7030691e+08 
   19580 9.7631343e+08 
   19590 9.3625183e+08 
   19600 9.721089e+08 
   19610 9.9694152e+08 
   19620 9.593239e+08 
   19630 1.0154491e+09 
   19640 9.1109217e+08 
   19650 9.4583246e+08 
   19660 9.5297496e+08 
   19670 9.7604442e+08 
   19680 9.6195256e+08 
   19690 9.8903623e+08 
   19700 9.5149052e+08 
   19710 9.5320118e+08 
   19720 9.5578919e+08 
   19730 8.9865305e+08 
   19740 9.3396404e+08 
   19750 9.4990116e+08 
   19760 9.5805615e+08 
   19770 9.3363888e+08 
   19780 9.4799346e+08 
   19790 9.2300511e+08 
   19800 9.4506482e+08 
   19810 9.5150334e+08 
   19820 9.8826566e+08 
   19830 9.5264211e+08 
   19840 9.3700574e+08 
   19850 9.7575005e+08 
   19860 9.3226558e+08 
   19870 9.3205598e+08 
   19880 9.4238741e+08 
   19890 9.5814305e+08 
   19900 9.7290998e+08 
   19910 9.4139343e+08 
   19920 9.3451855e+08 
   19930 9.701206e+08 
   19940 9.6550149e+08 
   19950 9.6015604e+08 
   19960 9.6034926e+08 
   19970 9.6556636e+08 
   19980 9.7259577e+08 
   19990 9.5328635e+08 
   20000 9.3580199e+08 
   20010 9.3686644e+08 
   20020 9.4879768e+08 
   20030 9.8042523e+08 
   20040 9.5815971e+08 
   20050 9.3376349e+08 
   20060 9.9837832e+08 
   20070 9.2901203e+08 
   20080 9.7413174e+08 
   20090 9.8922474e+08 
   20100 1.0200636e+09 
   20110 9.4962132e+08 
   20120 9.4889484e+08 
   20130 9.3765793e+08 
   20140 9.4842017e+08 
   20150 9.5233069e+08 
   20160 9.3510919e+08 
   20170 9.2219432e+08 
   20180 9.4115894e+08 
   20190 9.6506021e+08 
   20200 9.4008062e+08 
   20210 9.2034282e+08 
   20220 9.4721678e+08 
   20230 9.2022179e+08 
   20240 9.4872547e+08 
   20250 9.0032069e+08 
   20260 9.725271e+08 
   20270 9.6526019e+08 
   20280 9.3171705e+08 
   20290 9.4743696e+08 
   20300 9.3868096e+08 
   20310 9.5493482e+08 
   20320 9.4425272e+08 
   20330 9.1595445e+08 
   20340 9.8086799e+08 
   20350 9.8596676e+08 
   20360 9.7414609e+08 
   20370 9.5223006e+08 
   20380 9.6839948e+08 
   20390 9.3161661e+08 
   20400 9.5156605e+08 
   20410 9.4007054e+08 
   20420 9.3583193e+08 
   20430 9.8580777e+08 
   20440 9.6868132e+08 
   20450 9.8136489e+08 
   20460 9.6676419e+08 
   20470 9.6524858e+08 
   20480 9.487767e+08 
   20490 9.5516827e+08 
   20500 9.5734595e+08 
   20510 9.5483751e+08 
   20520 9.620583e+08 
   20530 9.4036475e+08 
   20540 9.5225226e+08 
   20550 9.540394e+08 
   20560 9.5447654e+08 
   20570 9.9467444e+08 
   20580 9.7536888e+08 
   20590 9.9319648e+08 
   20600 9.5870437e+08 
   20610 9.6240661e+08 
   20620 9.7148256e+08 
   20630 9.888163e+08 
   20640 9.3411495e+08 
   20650 9.6377093e+08 
   20660 9.4128415e+08 
   20670 9.4675688e+08 
   20680 9.7648673e+08 
   20690 9.9555818e+08 
   20700 9.5013466e+08 
   20710 9.3047899e+08 
   20720 9.7503273e+08 
   20730 9.6450859e+08 
   20740 9.3111293e+08 
   20750 9.4970224e+08 
   20760 9.2920111e+08 
   20770 9.2805988e+08 
   20780 9.9040223e+08 
   20790 9.2239914e+08 
   20800 9.4459275e+08 
   20810 9.6225186e+08 
   20820 9.8943791e+08 
   20830 9.8033459e+08 
   20840 9.7384495e+08 
   20850 9.4392249e+08 
   20860 1.0119678e+09 
   20870 1.0026318e+09 
   20880 9.3367922e+08 
   20890 9.2578105e+08 
   20900 9.6315236e+08 
   20910 9.8672426e+08 
   20920 9.7945911e+08 
   20930 9.6153095e+08 
   20940 9.4589606e+08 
   20950 9.9979166e+08 
   20960 1.021586e+09 
   20970 9.8622436e+08 
   20980 1.0037197e+09 
   20990 9.7982025e+08 
   21000 9.6869973e+08 
   21010  9.22667e+08 
   21020 9.5000143e+08 
   21030 9.7808055e+08 
   21040 9.540563e+08 
   21050 9.1957714e+08 
   21060 9.6589482e+08 
   21070 1.0170001e+09 
   21080 9.4614421e+08 
   21090 9.239469e+08 
   21100 9.3793659e+08 
   21110 9.8418714e+08 
   21120 9.0624749e+08 
   21130 9.6175546e+08 
   21140 9.6454887e+08 
   21150 9.7876526e+08 
   21160 9.2279365e+08 
   21170 9.2936353e+08 
   21180 9.6330106e+08 
   21190 9.5490333e+08 
   21200 9.242873e+08 
   21210 9.4870512e+08 
   21220 9.7603865e+08 
   21230 9.2188146e+08 
   21240 9.9476973e+08 
   21250 9.4822294e+08 
   21260 9.7674422e+08 
   21270 1.0073113e+09 
   21280 9.0758052e+08 
   21290 9.4922305e+08 
   21300 9.5988311e+08 
   21310 9.7185227e+08 
   21320 9.5731444e+08 
   21330 9.7687639e+08 
   21340 9.9040542e+08 
   21350 9.5088887e+08 
   21360 9.3740809e+08 
   21370 9.5834654e+08 
   21380 9.0065876e+08 
   21390 9.5711738e+08 
   21400 9.6840221e+08 
   21410 9.4373049e+08 
   21420 9.7670615e+08 
   21430 9.657601e+08 
   21440 9.7045495e+08 
   21450 9.7446035e+08 
   21460 9.9786327e+08 
   21470 9.7900338e+08 
   21480 1.0610287e+09 
   21490 9.7541202e+08 
   21500 9.8659279e+08 
   21510 9.3384738e+08 
   21520 9.6292325e+08 
   21530 9.2642826e+08 
   21540 9.452297e+08 
   21550 9.5222373e+08 
   21560 9.4485855e+08 
   21570 9.3178711e+08 
   21580 9.7934393e+08 
   21590 9.6661679e+08 
   21600 9.4842834e+08 
   21610 9.3959236e+08 
   21620 9.2891891e+08 
   21630 9.532584e+08 
   21640 9.5362209e+08 
   21650 9.3438333e+08 
   21660 9.1858891e+08 
   21670 9.3110965e+08 
   21680 9.4815045e+08 
   21690 9.7257991e+08 
   21700 9.6115844e+08 
   21710 8.9987037e+08 
   21720 9.3535196e+08 
   21730 9.6776465e+08 
   21740 9.7738992e+08 
   21750 9.6068066e+08 
   21760 9.4251898e+08 
   21770 9.4584731e+08 
   21780 9.6524483e+08 
   21790 9.4267449e+08 
   21800 9.2892933e+08 
   21810 9.4210594e+08 
   21820 9.8451663e+08 
   21830 9.6630406e+08 
   21840 9.6428819e+08 
   21850 9.7983053e+08 
   21860 9.4370451e+08 
   21870 9.3941265e+08 
   21880 9.4563047e+08 
   21890 9.4491832e+08 
   21900 9.4448043e+08 
   21910 9.298202e+08 
   21920 9.6602068e+08 
   21930 9.5578552e+08 
   21940 9.5212642e+08 
   21950 9.8025957e+08 
   21960 9.5637933e+08 
   21970 9.7283504e+08 
   21980 9.6611377e+08 
   21990 9.9371992e+08 
   22000 9.5690567e+08 
   22010 9.2991612e+08 
   22020 9.9604564e+08 
   22030 9.378694e+08 
   22040 9.5006494e+08 
   22050 9.6446897e+08 
   22060 9.9140689e+08 
   22070 9.3746782e+08 
   22080  9.53798e+08 
   22090 9.5985457e+08 
   22100 9.6371362e+08 
   22110 9.4675553e+08 
   22120 9.8238018e+08 
   22130 9.7246354e+08 
   22140 9.3165894e+08 
   22150 9.7308188e+08 
   22160 9.8552449e+08 
   22170 9.8725731e+08 
   22180 8.8418452e+08 
   22190 9.7474421e+08 
   22200 9.4508403e+08 
   22210 9.2343861e+08 
   22220 9.2469755e+08 
   22230 9.5832966e+08 
   22240 9.6620211e+08 
   22250 9.137716e+08 
   22260 9.5340389e+08 
   22270 9.0655713e+08 
   22280 9.3925135e+08 
   22290 9.325378e+08 
   22300 9.1324971e+08 
   22310  9.52586e+08 
   22320 9.0846407e+08 
   22330 9.8011273e+08 
   22340 9.090127e+08 
   22350 9.6198992e+08 
   22360 1.0154277e+09 
   22370 9.483622e+08 
   22380 9.6114403e+08 
   22390 9.1842309e+08 
   22400 9.6027016e+08 
   22410 9.4873635e+08 
   22420 9.7360474e+08 
   22430 9.6021029e+08 
   22440 9.1218645e+08 
   22450 9.5690662e+08 
   22460 9.5656626e+08 
   22470 9.3001333e+08 
   22480 9.5865317e+08 
   22490 9.8676667e+08 
   22500 9.1618872e+08 
   22510 9.675654e+08 
   22520 9.8930467e+08 
   22530 9.5234223e+08 
   22540 9.5444714e+08 
   22550 9.8484682e+08 
   22560 9.8820848e+08 
   22570 9.6826183e+08 
   22580 9.5024012e+08 
   22590 9.7549054e+08 
   22600 9.6030818e+08 
   22610 9.5324207e+08 
   22620 9.7354351e+08 
   22630 9.5317104e+08 
   22640 9.5932514e+08 
   22650 9.7455253e+08 
   22660 1.0251118e+09 
   22670 9.526862e+08 
   22680 9.9620094e+08 
   22690   9.4584e+08 
   22700 9.2270968e+08 
   22710 9.6402404e+08 
   22720 9.5779529e+08 
   22730 9.3384969e+08 
   22740 9.5771432e+08 
   22750 9.4181168e+08 
   22760 9.5467296e+08 
   22770 9.796661e+08 
   22780 9.8301842e+08 
   22790 9.5041838e+08 
   22800 9.6259732e+08 
   22810 9.1847346e+08 
   22820 9.4077438e+08 
   22830 9.5053023e+08 
   22840 9.411617e+08 
   22850 9.5721917e+08 
   22860 9.7919123e+08 
   22870 9.5640112e+08 
   22880 9.9050998e+08 
   22890 9.7089487e+08 
   22900 9.3668691e+08 
   22910 9.2401696e+08 
   22920 9.3737263e+08 
   22930 9.6455837e+08 
   22940 9.6515966e+08 
   22950 9.3835627e+08 
   22960 9.5015866e+08 
   22970 9.1598959e+08 
   22980 9.7732443e+08 
   22990 1.0012508e+09 
   23000 9.8280519e+08 
   23010 9.4335318e+08 
   23020 9.669105e+08 
   23030 9.6941564e+08 
   23040 9.5934789e+08 
   23050 9.6352155e+08 
   23060 9.7038447e+08 
   23070 1.0091044e+09 
   23080 9.7141113e+08 
   23090 9.2772069e+08 
   23100 9.8064035e+08 
   23110 9.4492362e+08 
   23120 9.9986385e+08 
   23130 9.5581446e+08 
   23140 9.4566802e+08 
   23150 9.6852112e+08 
   23160 9.5273244e+08 
   23170 9.6660084e+08 
   23180 9.7772778e+08 
   23190 9.6768853e+08 
   23200 9.7533311e+08 
   23210 9.7179083e+08 
   23220 9.5632364e+08 
   23230 9.8989215e+08 
   23240 1.0077822e+09 
   23250 9.4708795e+08 
   23260 9.5436592e+08 
   23270 9.8628682e+08 
   23280 9.362499e+08 
   23290 9.4524498e+08 
   23300 9.4648506e+08 
   23310 9.6636121e+08 
   23320 9.5509356e+08 
   23330 9.1667854e+08 
   23340 9.2798214e+08 
   23350 9.6729413e+08 
   23360 9.6258197e+08 
   23370 9.015165e+08 
   23380 9.3022708e+08 
   23390 9.6847941e+08 
   23400 9.1640692e+08 
   23410 9.7152134e+08 
   23420 9.7745617e+08 
   23430 9.6611986e+08 
   23440 9.3239381e+08 
   23450 9.7257188e+08 
   23460 9.821926e+08 
   23470 9.9147037e+08 
   23480 9.9404991e+08 
   23490 9.7106752e+08 
   23500 9.2567991e+08 
   23510 9.6200859e+08 
   23520 9.6344463e+08 
   23530 9.2635351e+08 
   23540 9.837148e+08 
   23550 9.5703813e+08 
   23560 9.2513307e+08 
   23570 9.2475636e+08 
   23580 9.6530777e+08 
   23590 9.7830567e+08 
   23600 9.6846998e+08 
   23610 9.3172407e+08 
   23620 9.5641269e+08 
   23630 9.531063e+08 
   23640 9.1252598e+08 
   23650 9.6731977e+08 
   23660 9.8047707e+08 
   23670 9.9124955e+08 
   23680 9.5882343e+08 
   23690 9.611851e+08 
   23700 9.9753733e+08 
   23710 9.9431152e+08 
   23720 1.0003077e+09 
   23730 9.896139e+08 
   23740 9.9337428e+08 
   23750 9.8167026e+08 
   23760 9.3606386e+08 
   23770 9.349401e+08 
   23780 9.4510643e+08 
   23790 9.4032817e+08 
   23800 9.6485735e+08 
   23810 9.7792299e+08 
   23820 9.7874063e+08 
   23830 9.6905583e+08 
   23840 9.2977645e+08 
   23850 9.1753795e+08 
   23860 9.9522632e+08 
   23870 9.545768e+08 
   23880 9.4472597e+08 
   23890 9.8342323e+08 
   23900 9.0178297e+08 
   23910 9.6097608e+08 
   23920 9.6291612e+08 
   23930 9.3700348e+08 
   23940 9.5668327e+08 
   23950 9.138571e+08 
   23960 9.117332e+08 
   23970 9.1400275e+08 
   23980 9.7099715e+08 
   23990 9.8655587e+08 
   24000 9.9997728e+08 
   24010 9.9101192e+08 
   24020 1.002092e+09 
   24030 9.6052298e+08 
   24040 9.2585411e+08 
   24050 9.4189676e+08 
   24060 9.9502803e+08 
   24070 9.4883094e+08 
   24080 9.2682863e+08 
   24090 9.7352475e+08 
   24100 9.6032297e+08 
   24110 9.9347196e+08 
   24120 9.5794433e+08 
   24130 9.2467519e+08 
   24140 9.6699016e+08 
   24150 9.6478326e+08 
   24160 9.4551811e+08 
   24170 9.7943413e+08 
   24180 9.3586984e+08 
   24190 9.6577345e+08 
   24200 9.6421229e+08 
   24210 9.6507108e+08 
   24220 9.3976948e+08 
   24230 9.7545324e+08 
   24240 9.8191122e+08 
   24250 8.8532298e+08 
   24260 1.0063751e+09 
   24270 9.6713392e+08 
   24280 9.859078e+08 
   24290 9.2172118e+08 
   24300 9.4338288e+08 
   24310 9.759305e+08 
   24320 9.1821476e+08 
   24330 9.5217822e+08 
   24340 9.4524504e+08 
   24350 9.2737511e+08 
   24360 9.5946853e+08 
   24370 9.5604685e+08 
   24380 9.3291196e+08 
   24390 9.0805733e+08 
   24400 9.4873965e+08 
   24410 9.4969098e+08 
   24420 9.7197446e+08 
   24430 9.3148851e+08 
   24440 9.2411874e+08 
   24450 9.9093571e+08 
   24460 9.3976633e+08 
   24470 9.5538614e+08 
   24480 9.831342e+08 
   24490 9.2352529e+08 
   24500 9.8646018e+08 
   24510 9.2629967e+08 
   24520 9.3796845e+08 
   24530 9.5525233e+08 
   24540 9.3319993e+08 
   24550 9.6245453e+08 
   24560 9.6615933e+08 
   24570 9.4644497e+08 
   24580 9.1625932e+08 
   24590 9.6689349e+08 
   24600 9.9266023e+08 
   24610 9.5046298e+08 
   24620 9.7234282e+08 
   24630 9.587451e+08 
   24640 9.5426649e+08 
   24650  9.81454e+08 
   24660 9.6209497e+08 
   24670 9.4391831e+08 
   24680 9.8971782e+08 
   24690 9.2564127e+08 
   24700 9.6130652e+08 
   24710 9.5398316e+08 
   24720 9.486301e+08 
   24730 9.0623613e+08 
   24740 9.4907942e+08 
   24750 9.6622426e+08 
   24760 9.6405717e+08 
   24770 9.368259e+08 
   24780 9.0739237e+08 
   24790 9.4477955e+08 
   24800 9.2544466e+08 
   24810 9.9357426e+08 
   24820 9.3395285e+08 
   24830 9.4617696e+08 
   24840 9.598528e+08 
   24850 9.6008357e+08 
   24860 9.7841557e+08 
   24870 9.3135676e+08 
   24880 9.886099e+08 
   24890 9.6639637e+08 
   24900 9.8313923e+08 
   24910 9.7048551e+08 
   24920 9.7488105e+08 
   24930 9.5584567e+08 
   24940 1.0085816e+09 
   24950 9.3004011e+08 
   24960 9.8130992e+08 
   24970 1.0085516e+09 
   24980 1.0016723e+09 
   24990 9.600146e+08 
   25000 9.3753744e+08 
   25010 9.3073098e+08 
   25020 9.4099052e+08 
   25030 9.9358903e+08 
   25040 9.7280763e+08 
   25050 9.4244872e+08 
   25060 9.6268744e+08 
   25070 9.7016821e+08 
   25080 9.4316801e+08 
   25090 9.6807307e+08 
   25100 9.8968411e+08 
   25110 9.6174995e+08 
   25120 9.9131586e+08 
   25130 9.3929001e+08 
   25140 9.6975363e+08 
   25150 9.5082925e+08 
   25160 9.483398e+08 
   25170 9.5398918e+08 
   25180 9.4850062e+08 
   25190 9.5537456e+08 
   25200 9.1251934e+08 
   25210 9.532003e+08 
   25220 9.6661472e+08 
   25230 9.6047879e+08 
   25240 9.5971943e+08 
   25250 9.1318458e+08 
   25260 9.4996127e+08 
   25270 9.7909483e+08 
   25280 1.0069456e+09 
   25290 9.7468937e+08 
   25300 9.9852515e+08 
   25310 9.330876e+08 
   25320 9.6193593e+08 
   25330 9.4928533e+08 
   25340 9.6302235e+08 
   25350 9.2254353e+08 
   25360 9.2488829e+08 
   25370 9.9071836e+08 
   25380 9.8964586e+08 
   25390 9.9286867e+08 
   25400 9.4104817e+08 
   25410 9.5090516e+08 
   25420 9.6380606e+08 
   25430 9.2816088e+08 
   25440 9.4917658e+08 
   25450 9.6957806e+08 
   25460 9.6517705e+08 
   25470 9.7833445e+08 
   25480 9.7451264e+08 
   25490 9.0678421e+08 
   25500 9.4162538e+08 
   25510 9.8237656e+08 
   25520 9.8622161e+08 
   25530 9.7454046e+08 
   25540 9.769147e+08 
   25550 9.6018351e+08 
   25560 9.2431267e+08 
   25570 9.2146987e+08 
   25580 9.8630304e+08 
   25590 9.6082857e+08 
   25600 8.958339e+08 
   25610 9.8763873e+08 
   25620 9.5393619e+08 
   25630 9.939014e+08 
   25640 1.0112076e+09 
   25650 9.6577922e+08 
   25660 9.517265e+08 
   25670 9.8405799e+08 
   25680 9.7723185e+08 
   25690 9.9396218e+08 
   25700 9.5500648e+08 
   25710 9.5583008e+08 
   25720 9.4167411e+08 
   25730 9.4506227e+08 
   25740 9.3041045e+08 
   25750 9.4446853e+08 
   25760 9.5531182e+08 
   25770 9.6841512e+08 
   25780 9.7223633e+08 
   25790 9.568504e+08 
   25800 9.9010507e+08 
   25810 9.2728126e+08 
   25820 9.2270829e+08 
   25830 9.3338276e+08 
   25840 9.5283589e+08 
   25850 9.4036663e+08 
   25860 9.4268961e+08 
   25870 9.4214205e+08 
   25880 9.8064796e+08 
   25890 9.3454372e+08 
   25900 9.7964982e+08 
   25910 9.1502904e+08 
   25920 9.3844126e+08 
   25930 9.3591161e+08 
   25940 9.4761661e+08 
   25950 9.4497725e+08 
   25960 9.4143571e+08 
   25970 9.5982011e+08 
   25980 9.691744e+08 
   25990 9.2103748e+08 
   26000 9.4559988e+08 
   26010 1.0012427e+09 
   26020 9.8563783e+08 
   26030 9.4338706e+08 
   26040 9.4183857e+08 
   26050 9.7583232e+08 
   26060 9.8057386e+08 
   26070 9.5199242e+08 
   26080 9.7313463e+08 
   26090 9.6437543e+08 
   26100 9.3481727e+08 
   26110 9.5588209e+08 
   26120 9.7066136e+08 
   26130 9.5222685e+08 
   26140 1.0050594e+09 
   26150 9.3223015e+08 
   26160 9.7158833e+08 
   26170 9.4498327e+08 
   26180 9.189163e+08 
   26190 9.6423844e+08 
   26200 9.8483399e+08 
   26210 9.4000153e+08 
   26220 9.2932048e+08 
   26230 9.3813186e+08 
   26240 9.7624922e+08 
   26250 9.4484268e+08 
   26260 9.3793302e+08 
   26270 9.3250159e+08 
   26280 9.3998489e+08 
   26290 9.7915273e+08 
   26300 1.0023497e+09 
   26310 9.721101e+08 
   26320 9.663881e+08 
   26330 9.8697829e+08 
   26340 9.6866488e+08 
   26350 9.3474027e+08 
   26360 8.9278532e+08 
   26370 9.6950873e+08 
   26380 9.7110038e+08 
   26390 9.7401052e+08 
   26400 9.2690681e+08 
   26410 9.6140931e+08 
   26420 9.4199901e+08 
   26430 9.9235275e+08 
   26440 9.5334243e+08 
   26450 9.9440759e+08 
   26460 9.9149323e+08 
   26470 9.7103951e+08 
   26480 9.6632487e+08 
   26490 9.7139849e+08 
   26500 9.5751334e+08 
   26510 9.904308e+08 
   26520  1.01627e+09 
   26530 9.5719874e+08 
   26540 9.4718696e+08 
   26550 9.6286293e+08 
   26560 9.719474e+08 
   26570 9.9530433e+08 
   26580 9.5935221e+08 
   26590 9.4633506e+08 
   26600 9.4418006e+08 
   26610 9.8287302e+08 
   26620 9.3261932e+08 
   26630 9.5405112e+08 
   26640 9.5527941e+08 
   26650 9.5165527e+08 
   26660 9.9646616e+08 
   26670  9.95943e+08 
   26680 9.5887324e+08 
   26690 9.8516622e+08 
   26700 9.460609e+08 
   26710 9.9336692e+08 
   26720 9.3897529e+08 
   26730 9.3841584e+08 
   26740 9.5597404e+08 
   26750 9.1442037e+08 
   26760 9.8243472e+08 
   26770 9.7911427e+08 
   26780 9.6157363e+08 
   26790 9.8078463e+08 
   26800 9.3773086e+08 
   26810 9.5340121e+08 
   26820 9.6680088e+08 
   26830 9.3963757e+08 
   26840 9.9997233e+08 
   26850 9.5636382e+08 
   26860 1.0347913e+09 
   26870 9.6570099e+08 
   26880 9.6528915e+08 
   26890 9.4054917e+08 
   26900 9.7202887e+08 
   26910 9.7880357e+08 
   26920 9.9485012e+08 
   26930 9.1500319e+08 
   26940 9.8691345e+08 
   26950 9.699531e+08 
   26960 9.288195e+08 
   26970 9.5466186e+08 
   26980 9.2302622e+08 
   26990 9.4203009e+08 
   27000 9.9896215e+08 
   27010 9.3928777e+08 
   27020 9.4969125e+08 
   27030 9.5689264e+08 
   27040 9.8850526e+08 
   27050 9.673168e+08 
   27060 9.9996154e+08 
   27070 9.5377255e+08 
   27080 9.6362294e+08 
   27090 9.5960117e+08 
   27100 9.6947913e+08 
   27110 9.6470425e+08 
   27120 9.7590309e+08 
   27130 9.8617941e+08 
   27140 9.2325382e+08 
   27150 9.7433984e+08 
   27160 9.8517146e+08 
   27170 9.3006372e+08 
   27180 9.2357201e+08 
   27190 9.5670502e+08 
   27200 9.9193403e+08 
   27210 9.6058114e+08 
   27220 9.743749e+08 
   27230 9.369166e+08 
   27240 9.749548e+08 
   27250 9.7122025e+08 
   27260 9.7833491e+08 
   27270 9.4756541e+08 
   27280 9.7338045e+08 
   27290 9.3321784e+08 
   27300 9.5501947e+08 
   27310 9.7305304e+08 
   27320 1.005173e+09 
   27330 9.3787968e+08 
   27340 1.0097686e+09 
   27350 9.4330078e+08 
   27360 9.6407577e+08 
   27370 9.4056901e+08 
   27380 9.7083953e+08 
   27390 1.0036303e+09 
   27400 9.6259544e+08 
   27410 9.1600491e+08 
   27420 9.7406585e+08 
   27430 9.6627517e+08 
   27440 9.8198966e+08 
   27450 9.3481759e+08 
   27460 9.6454704e+08 
   27470 9.7442142e+08 
   27480 9.8736963e+08 
   27490 9.6562776e+08 
   27500 9.7090608e+08 
   27510 9.4640431e+08 
   27520 9.871797e+08 
   27530 9.4845012e+08 
   27540 9.3111537e+08 
   27550 9.6697115e+08 
   27560 9.5889598e+08 
   27570 1.0125219e+09 
   27580 9.466672e+08 
   27590 9.7794653e+08 
   27600 9.973975e+08 
   27610 9.7138518e+08 
   27620 9.5060125e+08 
   27630 9.265572e+08 
   27640 9.5966598e+08 
   27650 9.5902749e+08 
   27660 9.8278761e+08 
   27670 9.6135239e+08 
   27680 9.5703957e+08 
   27690 9.9829613e+08 
   27700 9.8121459e+08 
   27710 9.4601766e+08 
   27720 9.7992102e+08 
   27730 9.4522183e+08 
   27740 9.5426759e+08 
   27750 9.7386429e+08 
   27760 9.7173518e+08 
   27770 9.5378348e+08 
   27780 9.6580258e+08 
   27790 9.6811524e+08 
   27800 9.8117153e+08 
   27810 9.6992852e+08 
   27820 9.473416e+08 
   27830 9.590563e+08 
   27840   9.5903e+08 
   27850 9.7724665e+08 
   27860 9.399804e+08 
   27870 9.7697543e+08 
   27880 9.5801484e+08 
   27890 9.460143e+08 
   27900 1.0073818e+09 
   27910 9.3906641e+08 
   27920 9.7705242e+08 
   27930 9.0440645e+08 
   27940 9.6860809e+08 
   27950 9.4714893e+08 
   27960 9.4011125e+08 
   27970 9.6459563e+08 
   27980 9.712465e+08 
   27990 9.2789152e+08 
   28000 9.2375399e+08 
   28010 9.8944224e+08 
   28020 9.4408276e+08 
   28030 9.6146386e+08 
   28040 1.0063722e+09 
   28050 9.7724222e+08 
   28060 9.3129473e+08 
   28070 9.6553055e+08 
   28080 8.8763324e+08 
   28090 9.1322981e+08 
   28100 9.6783639e+08 
   28110 9.865738e+08 
   28120 1.0060888e+09 
   28130 9.3314529e+08 
   28140 1.007077e+09 
   28150 9.7790511e+08 
   28160 9.6538632e+08 
   28170 9.8079712e+08 
   28180 9.5516658e+08 
   28190 9.6354905e+08 
   28200 9.2931967e+08 
   28210 9.6249802e+08 
   28220 9.8294106e+08 
   28230 9.6221438e+08 
   28240 9.8312531e+08 
   28250 9.5415124e+08 
   28260 9.6472591e+08 
   28270 9.4736669e+08 
   28280  9.16929e+08 
   28290 9.6163696e+08 
   28300 9.2644461e+08 
   28310 9.918733e+08 
   28320 9.412885e+08 
   28330 9.5948084e+08 
   28340 9.8806117e+08 
   28350 9.8135627e+08 
   28360 9.5848439e+08 
   28370 9.2989609e+08 
   28380 9.6940149e+08 
   28390 9.4575843e+08 
   28400 9.9166897e+08 
   28410 9.407709e+08 
   28420 9.8699199e+08 
   28430 9.6783716e+08 
   28440 9.5525422e+08 
   28450 9.4416256e+08 
   28460 9.5167665e+08 
   28470 9.7574139e+08 
   28480 9.1841556e+08 
   28490 9.7757355e+08 
   28500 9.8164322e+08 
   28510 9.593012e+08 
   28520 9.1967544e+08 
   28530 9.6025407e+08 
   28540 9.4099114e+08 
   28550 9.3950131e+08 
   28560 9.6421996e+08 
   28570 9.1674832e+08 
   28580 9.6691341e+08 
   28590 9.9430004e+08 
   28600 9.616526e+08 
   28610 9.9460531e+08 
   28620 9.4086109e+08 
   28630 9.4459063e+08 
   28640 9.3498476e+08 
   28650 9.2741544e+08 
   28660 9.6249417e+08 
   28670 9.2827574e+08 
   28680 9.409679e+08 
   28690 9.5941633e+08 
   28700 9.9781591e+08 
   28710 9.7634122e+08 
   28720 9.577472e+08 
   28730 9.4405607e+08 
   28740 9.5500966e+08 
   28750 9.5844432e+08 
   28760 9.6939568e+08 
   28770 9.0294831e+08 
   28780 9.140173e+08 
   28790 9.850851e+08 
   28800 9.3739375e+08 
   28810 9.5648929e+08 
   28820 9.4831594e+08 
   28830 9.6216522e+08 
   28840 9.6504916e+08 
   28850 9.2268265e+08 
   28860 9.5618563e+08 
   28870 9.9235523e+08 
   28880 9.3399164e+08 
   28890 9.6650628e+08 
   28900 1.0104275e+09 
   28910 9.3932309e+08 
   28920 9.6998386e+08 
   28930 9.8915567e+08 
   28940 9.774971e+08 
   28950 9.3272476e+08 
   28960 9.5335528e+08 
   28970 9.9904126e+08 
   28980 9.7832191e+08 
   28990 9.7607415e+08 
   29000 9.0903443e+08 
   29010 9.378798e+08 
   29020 1.0210915e+09 
   29030 9.6960291e+08 
   29040 9.1924294e+08 
   29050 9.494785e+08 
   29060 9.2403598e+08 
   29070 9.4665679e+08 
   29080 9.4195582e+08 
   29090 9.5890492e+08 
   29100 9.7051027e+08 
   29110 9.6129124e+08 
   29120 9.3911334e+08 
   29130 9.5798798e+08 
   29140 9.8082125e+08 
   29150 9.8497416e+08 
   29160 9.5773666e+08 
   29170 1.0155193e+09 
   29180 9.5008104e+08 
   29190 9.7407451e+08 
   29200  1.00892e+09 
   29210 9.5274942e+08 
   29220 9.6336535e+08 
   29230 9.5891989e+08 
   29240 9.2530219e+08 
   29250 9.4143285e+08 
   29260 9.1530901e+08 
   29270 9.649984e+08 
   29280 9.7780716e+08 
   29290 9.370654e+08 
   29300 9.2703277e+08 
   29310 9.5323775e+08 
   29320 9.5087956e+08 
   29330 9.6737949e+08 
   29340 9.4900382e+08 
   29350 9.8210445e+08 
   29360 9.3735851e+08 
   29370 9.2119146e+08 
   29380 9.6997264e+08 
   29390 9.5963622e+08 
   29400 9.8824129e+08 
   29410 1.0239295e+09 
   29420 9.7966423e+08 
   29430 9.498969e+08 
   29440 9.5491773e+08 
   29450 9.3579672e+08 
   29460 9.8846086e+08 
   29470 1.0361273e+09 
   29480 9.5637287e+08 
   29490 9.4608392e+08 
   29500 9.820402e+08 
   29510 9.8652127e+08 
   29520 9.9387076e+08 
   29530 9.465742e+08 
   29540 9.5424843e+08 
   29550 9.579787e+08 
   29560 9.4471411e+08 
   29570 1.0132886e+09 
   29580 9.437834e+08 
   29590 9.6872857e+08 
   29600 9.5326649e+08 
   29610 9.9908797e+08 
   29620 9.6154176e+08 
   29630 9.5908789e+08 
   29640 9.751665e+08 
   29650 9.5312639e+08 
   29660 9.7754084e+08 
   29670  9.70256e+08 
   29680 9.6447106e+08 
   29690 9.5133531e+08 
   29700 9.7382624e+08 
   29710 9.5050724e+08 
   29720 9.5555759e+08 
   29730 9.3865284e+08 
   29740 9.4153205e+08 
   29750 9.918468e+08 
   29760 9.5123615e+08 
   29770 9.2913817e+08 
   29780 9.9334569e+08 
   29790 9.7251327e+08 
   29800 9.0361181e+08 
   29810 9.4326725e+08 
   29820 9.6481654e+08 
   29830 9.7635422e+08 
   29840 9.4904977e+08 
   29850 1.0158482e+09 
   29860 9.9826551e+08 
   29870 9.5218018e+08 
   29880 9.3810715e+08 
   29890 9.4596259e+08 
   29900 9.5530904e+08 
   29910 9.7110664e+08 
   29920 9.8366279e+08 
   29930 9.7720692e+08 
   29940 9.468343e+08 
   29950 9.3742827e+08 
   29960 9.9505135e+08 
   29970 9.3020796e+08 
   29980 9.369991e+08 
   29990 9.6297076e+08 
   30000 1.0039348e+09 
   30010 9.817434e+08 
   30020 9.2081007e+08 
   30030 9.4737299e+08 
   30040 9.3016453e+08 
   30050 9.7959402e+08 
   30060 9.5315664e+08 
   30070 8.9119763e+08 
   30080 9.7174158e+08 
   30090 9.3705295e+08 
   30100 9.4425036e+08 
   30110 9.306481e+08 
   30120 9.7176279e+08 
   30130 9.706077e+08 
   30140 9.4114658e+08 
   30150 9.8443284e+08 
   30160 9.1454611e+08 
   30170 9.4919892e+08 
   30180 9.8303091e+08 
   30190 9.4097011e+08 
   30200 9.4875878e+08 
   30210 9.3544302e+08 
   30220 9.6714167e+08 
   30230 9.626505e+08 
   30240 9.5930428e+08 
   30250 1.0124869e+09 
   30260 9.3066376e+08 
   30270 9.7656111e+08 
   30280 9.1877367e+08 
   30290 9.2282151e+08 
   30300 9.6313558e+08 
   30310 9.4192084e+08 
   30320 9.8260531e+08 
   30330 9.428956e+08 
   30340 9.4908398e+08 
   30350 9.7050642e+08 
   30360 9.5525161e+08 
   30370 9.4757864e+08 
   30380 9.4853166e+08 
   30390 9.2345802e+08 
   30400 9.6278056e+08 
   30410 9.8930894e+08 
   30420 9.7293584e+08 
   30430 9.368735e+08 
   30440 9.1173722e+08 
   30450 9.5980729e+08 
   30460 9.4355717e+08 
   30470 9.4436777e+08 
   30480 9.6935775e+08 
   30490 9.6790922e+08 
   30500 9.8249701e+08 
   30510 9.4627614e+08 
   30520 9.555643e+08 
   30530 9.6562753e+08 
   30540 9.4107935e+08 
   30550 9.8762196e+08 
   30560 9.6610941e+08 
   30570 9.1780606e+08 
   30580 9.2360126e+08 
   30590 9.6997339e+08 
   30600 8.9394287e+08 
   30610 9.5725481e+08 
   30620 9.662858e+08 
   30630 9.708039e+08 
   30640 9.6844445e+08 
   30650 9.8548566e+08 
   30660 9.5012239e+08 
   30670 9.5059516e+08 
   30680 9.9230466e+08 
   30690 9.1907291e+08 
   30700 9.7842032e+08 
   30710 9.5992138e+08 
   30720 9.6620563e+08 
   30730 9.1974197e+08 
   30740 9.1910036e+08 
   30750 9.3007141e+08 
   30760 9.7176074e+08 
   30770 9.4017786e+08 
   30780 9.593516e+08 
   30790 9.2471265e+08 
   30800 9.1761768e+08 
   30810 9.1690304e+08 
   30820 9.3846305e+08 
   30830 9.6143995e+08 
   30840 9.6309379e+08 
   30850 9.4256001e+08 
   30860 9.6579592e+08 
   30870 9.3983939e+08 
   30880 9.4697036e+08 
   30890 9.2552151e+08 
   30900 9.8071384e+08 
   30910 9.2476571e+08 
   30920 9.4268941e+08 
   30930 9.5833654e+08 
   30940 9.7827302e+08 
   30950 9.9127892e+08 
   30960 9.3225836e+08 
   30970 9.6496053e+08 
   30980 9.7768328e+08 
   30990 9.8401717e+08 
   31000 9.1465125e+08 
   31010 1.0150657e+09 
   31020 9.8968467e+08 
   31030 9.0714792e+08 
   31040 9.5203587e+08 
   31050 1.0164574e+09 
   31060 9.6641513e+08 
   31070 9.8893716e+08 
   31080 9.2800912e+08 
   31090 9.6498343e+08 
   31100 9.6464359e+08 
   31110 9.6746611e+08 
[...]
   91910 9.3621146e+08 
   91920 9.3075127e+08 
   91930 9.4838671e+08 
   91940 9.5106759e+08 
   91950 9.3281478e+08 
   91960 9.5671834e+08 
   91970 9.7701757e+08 
   91980 9.5564072e+08 
   91990 9.632262e+08 
   92000 9.4686996e+08 
   92010 9.6334642e+08 
   92020 9.8155155e+08 
   92030 9.710689e+08 
   92040 9.949344e+08 
   92050 9.6708319e+08 
   92060 9.5860552e+08 
   92070 9.492406e+08 
   92080 9.5461366e+08 
   92090 9.7144302e+08 
   92100 9.5785966e+08 
   92110 9.4911144e+08 
   92120 9.3735521e+08 
   92130 9.0486621e+08 
   92140 9.6896823e+08 
   92150 9.6356729e+08 
   92160 9.7153092e+08 
   92170 9.3063682e+08 
   92180 9.5506803e+08 
   92190 9.8833842e+08 
   92200 9.4595702e+08 
   92210 9.9016287e+08 
   92220 9.5927545e+08 
   92230 9.626489e+08 
   92240 9.4784086e+08 
   92250 9.5286463e+08 
   92260  9.28428e+08 
   92270 9.208532e+08 
   92280 9.3222317e+08 
   92290 9.1921248e+08 
   92300 9.4810062e+08 
   92310 9.3681044e+08 
   92320 9.8073112e+08 
   92330 9.4419924e+08 
   92340 9.9168856e+08 
   92350 9.5937749e+08 
   92360 9.3996887e+08 
   92370 9.4943374e+08 
   92380 9.1453325e+08 
   92390 9.449419e+08 
   92400 9.998361e+08 
   92410 9.2378363e+08 
   92420 1.0247508e+09 
   92430 9.7179815e+08 
   92440 9.5453649e+08 
   92450 9.1070919e+08 
   92460 9.2616047e+08 
   92470 9.5583181e+08 
   92480 9.8019007e+08 
   92490 9.8098846e+08 
   92500 9.7103815e+08 
   92510 9.3060502e+08 
   92520 9.6730064e+08 
   92530 9.6745709e+08 
   92540 9.7460463e+08 
   92550 9.9785607e+08 
   92560 9.7970699e+08 
   92570 9.6338623e+08 
   92580 9.4261247e+08 
   92590 9.3194567e+08 
   92600 8.7782292e+08 
   92610 9.6752192e+08 
   92620 9.2413373e+08 
   92630 1.0040664e+09 
   92640 9.6616678e+08 
   92650 9.4511901e+08 
   92660 9.451016e+08 
   92670 9.298427e+08 
   92680 9.3860824e+08 
   92690 9.384549e+08 
   92700 9.6469796e+08 
   92710 9.7126715e+08 
   92720 9.1974652e+08 
   92730 9.6118209e+08 
   92740 9.6447566e+08 
   92750 9.5222945e+08 
   92760 9.6219268e+08 
   92770 9.4336772e+08 
   92780 1.0021779e+09 
   92790 9.815066e+08 
   92800 9.4083488e+08 
   92810 9.5486782e+08 
   92820 9.4473719e+08 
   92830 9.2372484e+08 
   92840 9.5678231e+08 
   92850 9.5645655e+08 
   92860 9.5914335e+08 
   92870 9.2281369e+08 
   92880 9.6966619e+08 
   92890 9.6996581e+08 
   92900 9.8385716e+08 
   92910 9.8519875e+08 
   92920 9.1926305e+08 
   92930 9.7184518e+08 
   92940 9.2915532e+08 
   92950 9.977662e+08 
   92960 9.3781267e+08 
   92970 9.2368752e+08 
   92980 9.4758443e+08 
   92990 9.3501142e+08 
   93000  9.84187e+08 
   93010 9.3003662e+08 
   93020 9.4506661e+08 
   93030 9.7153799e+08 
   93040 9.7057416e+08 
   93050 9.7544367e+08 
   93060 9.8086347e+08 
   93070 9.2281529e+08 
   93080 9.5593449e+08 
   93090 9.3447948e+08 
   93100 9.5816476e+08 
   93110 9.6365225e+08 
   93120 9.1831278e+08 
   93130 9.2653195e+08 
   93140 9.4742718e+08 
   93150 9.4818558e+08 
   93160 9.4628715e+08 
   93170 9.5448811e+08 
   93180 9.5855627e+08 
   93190 1.0280885e+09 
   93200 9.6162336e+08 
   93210 9.9893688e+08 
   93220 9.5076666e+08 
   93230 9.6329282e+08 
   93240 1.0097321e+09 
   93250 9.6598599e+08 
   93260 9.414125e+08 
   93270 9.2283993e+08 
   93280 9.5430066e+08 
   93290 9.4843027e+08 
   93300 9.7089889e+08 
   93310 9.3967453e+08 
   93320 9.960017e+08 
   93330 9.5273619e+08 
   93340 9.5186701e+08 
   93350 9.6841727e+08 
   93360 9.3366658e+08 
   93370 9.2218102e+08 
   93380 9.3769917e+08 
   93390 9.3805953e+08 
   93400 9.585512e+08 
   93410 9.4470316e+08 
   93420 9.6140543e+08 
   93430 9.303032e+08 
   93440 9.6062067e+08 
   93450 9.771764e+08 
   93460 9.6978436e+08 
   93470 9.6674152e+08 
   93480 9.6226982e+08 
   93490 1.0001333e+09 
   93500 9.4583141e+08 
   93510 9.7955664e+08 
   93520 9.941077e+08 
   93530 9.9790336e+08 
   93540 9.2725931e+08 
   93550 9.8386347e+08 
   93560 9.4562577e+08 
   93570 9.185333e+08 
   93580 9.7450212e+08 
   93590 9.8325999e+08 
   93600 9.2943045e+08 
   93610 9.3601739e+08 
   93620 9.3133403e+08 
   93630 9.4995385e+08 
   93640 9.576119e+08 
   93650 9.4558975e+08 
   93660 9.833706e+08 
   93670 9.919801e+08 
   93680 9.1825365e+08 
   93690 9.3141199e+08 
   93700 9.3658348e+08 
   93710 9.7071381e+08 
   93720 1.0056383e+09 
   93730 9.6596562e+08 
   93740 9.6843465e+08 
   93750 8.958238e+08 
   93760 9.1559887e+08 
   93770 9.2117607e+08 
   93780 9.6047054e+08 
   93790 9.9678762e+08 
   93800 9.7508399e+08 
   93810 9.5304876e+08 
   93820 9.3456669e+08 
   93830 9.1714123e+08 
   93840 9.3930718e+08 
   93850 9.6791774e+08 
   93860 9.7223036e+08 
   93870 9.7711145e+08 
   93880 9.8152249e+08 
   93890 9.202726e+08 
   93900 9.4345867e+08 
   93910 9.3655739e+08 
   93920 9.5276259e+08 
   93930 9.1528186e+08 
   93940 9.3764443e+08 
   93950 9.5978774e+08 
   93960 9.6867119e+08 
   93970 9.7021589e+08 
   93980 9.3755672e+08 
   93990 9.7109341e+08 
   94000 9.5791027e+08 
   94010 9.8489519e+08 
   94020 9.645424e+08 
   94030 1.009534e+09 
   94040 8.7127637e+08 
   94050 9.7288477e+08 
   94060 9.3723433e+08 
   94070 9.6006123e+08 
   94080 9.3089691e+08 
   94090 9.7301361e+08 
   94100 9.6184755e+08 
   94110 9.282049e+08 
   94120 1.000196e+09 
   94130 9.8066444e+08 
   94140 9.8184941e+08 
   94150 9.4494296e+08 
   94160 9.3584028e+08 
   94170 9.5440651e+08 
   94180 9.6664677e+08 
   94190 9.5560832e+08 
   94200 9.0463613e+08 
   94210 9.7378826e+08 
   94220 9.7716912e+08 
   94230 9.5511626e+08 
   94240 9.5907341e+08 
   94250 9.5256408e+08 
   94260 9.0912636e+08 
   94270 9.9798073e+08 
   94280  9.49314e+08 
   94290 9.6126148e+08 
   94300  9.49887e+08 
   94310 9.5134685e+08 
   94320 9.6862719e+08 
   94330 9.4560374e+08 
   94340 9.6076713e+08 
   94350 9.3415517e+08 
   94360 9.8467545e+08 
   94370 9.4581553e+08 
   94380 9.556325e+08 
   94390 9.8561603e+08 
   94400 9.520934e+08 
   94410 9.8219684e+08 
   94420 9.5971358e+08 
   94430 9.7530411e+08 
   94440 9.6297918e+08 
   94450 9.9213743e+08 
   94460 9.7528568e+08 
   94470 9.5547163e+08 
   94480 9.931863e+08 
   94490 9.1422956e+08 
   94500 9.3492107e+08 
   94510 9.4774697e+08 
   94520 9.6448889e+08 
   94530 9.2917607e+08 
   94540 9.9051272e+08 
   94550 9.3903395e+08 
   94560 9.7264066e+08 
   94570 9.4391221e+08 
   94580 9.3072267e+08 
   94590 9.9553821e+08 
   94600 9.478763e+08 
   94610 9.4318563e+08 
   94620 9.3383203e+08 
   94630 9.8963081e+08 
   94640 9.0017998e+08 
   94650 9.4708875e+08 
   94660 9.697416e+08 
   94670 9.5718097e+08 
   94680 9.3329483e+08 
   94690 9.8172787e+08 
   94700 9.5425886e+08 
   94710 1.0297444e+09 
   94720 9.341161e+08 
   94730 9.9029842e+08 
   94740 9.2586775e+08 
   94750 9.6234772e+08 
   94760 9.0351147e+08 
   94770 9.395374e+08 
   94780 9.9724687e+08 
   94790 9.211234e+08 
   94800 9.4852369e+08 
   94810 9.6043494e+08 
   94820 9.0545343e+08 
   94830 9.5680861e+08 
   94840 9.7497767e+08 
   94850 9.3981317e+08 
   94860 9.2410806e+08 
   94870 9.4723041e+08 
   94880 9.5007102e+08 
   94890 9.8080737e+08 
   94900 9.6985491e+08 
   94910 9.2893425e+08 
   94920 9.3044178e+08 
   94930 9.1197578e+08 
   94940 9.719475e+08 
   94950 9.7058926e+08 
   94960 9.6940851e+08 
   94970 1.0074202e+09 
   94980 9.2733303e+08 
   94990 9.6784374e+08 
   95000 9.3195052e+08 
   95010 9.3797119e+08 
   95020 9.543466e+08 
   95030 9.5412159e+08 
   95040 9.7196674e+08 
   95050 9.5157292e+08 
   95060 9.7975023e+08 
   95070 1.0052897e+09 
   95080 9.529645e+08 
   95090 9.9538554e+08 
   95100 9.100538e+08 
   95110 9.9834484e+08 
   95120 1.014138e+09 
   95130 9.6167153e+08 
   95140 9.4895552e+08 
   95150 9.7893435e+08 
   95160 9.8066978e+08 
   95170 9.5975273e+08 
   95180 9.331611e+08 
   95190 9.5991512e+08 
   95200 9.9053944e+08 
   95210 9.9568149e+08 
   95220 9.1611136e+08 
   95230 9.4805066e+08 
   95240 9.5407545e+08 
   95250 9.6833842e+08 
   95260 9.402799e+08 
   95270 9.4716339e+08 
   95280 9.4664585e+08 
   95290 9.7445845e+08 
   95300 9.6052279e+08 
   95310 9.7843717e+08 
   95320 9.3885033e+08 
   95330 9.5614709e+08 
   95340 9.4320889e+08 
   95350 9.732384e+08 
   95360 9.7949198e+08 
   95370 9.3461459e+08 
   95380 9.4288626e+08 
   95390 9.4643172e+08 
   95400 9.6674369e+08 
   95410 9.7659981e+08 
   95420 9.4736914e+08 
   95430 9.6311307e+08 
   95440 9.0932934e+08 
   95450 8.9247915e+08 
   95460 9.3229821e+08 
   95470 1.0005804e+09 
   95480 9.8967078e+08 
   95490 9.6215962e+08 
   95500 9.8281507e+08 
   95510 8.9523126e+08 
   95520 9.9032987e+08 
   95530 1.0011289e+09 
   95540 9.714711e+08 
   95550 9.5467924e+08 
   95560 9.7092886e+08 
   95570 9.8444752e+08 
   95580 9.5038457e+08 
   95590 9.6758221e+08 
   95600 9.4659278e+08 
   95610 9.6871157e+08 
   95620 9.9365951e+08 
   95630 9.9558426e+08 
   95640 9.4832199e+08 
   95650 9.6533527e+08 
   95660 9.6109958e+08 
   95670 9.381409e+08 
   95680 9.6618339e+08 
   95690 9.3045183e+08 
   95700 9.5303493e+08 
   95710 9.7545781e+08 
   95720 9.4585368e+08 
   95730 9.7120936e+08 
   95740 9.2837979e+08 
   95750 9.7615617e+08 
   95760 9.4778752e+08 
   95770 9.5142542e+08 
   95780 9.6950048e+08 
   95790 1.001186e+09 
   95800 9.8295267e+08 
   95810 9.8459081e+08 
   95820 9.2937156e+08 
   95830 9.8119539e+08 
   95840 9.4939106e+08 
   95850 9.453773e+08 
   95860 9.2314519e+08 
   95870 9.6182419e+08 
   95880 9.9554009e+08 
   95890 9.3475136e+08 
   95900 9.8133201e+08 
   95910 9.5933546e+08 
   95920 9.1375911e+08 
   95930 9.6820197e+08 
   95940 9.5147517e+08 
   95950 9.6099731e+08 
   95960 9.5844596e+08 
   95970 9.9979252e+08 
   95980 9.129937e+08 
   95990 9.4482184e+08 
   96000 9.4388788e+08 
   96010 9.5021738e+08 
   96020 9.5501652e+08 
   96030 9.499429e+08 
   96040 9.8092891e+08 
   96050 9.8143531e+08 
   96060 9.718337e+08 
   96070 9.5740576e+08 
   96080 9.708731e+08 
   96090 9.1697553e+08 
   96100 9.5731932e+08 
   96110 9.5920375e+08 
   96120 9.7433939e+08 
   96130 9.6050062e+08 
   96140 9.9970773e+08 
   96150 9.6818249e+08 
   96160 9.3953423e+08 
   96170 9.6898613e+08 
   96180 9.3685786e+08 
   96190 9.5007398e+08 
   96200 9.3202143e+08 
   96210 1.0155517e+09 
   96220 9.8830456e+08 
   96230 1.0280188e+09 
   96240 9.6276265e+08 
   96250 9.7750225e+08 
   96260 9.4339475e+08 
   96270 9.3328856e+08 
   96280 9.9269149e+08 
   96290 9.6273798e+08 
   96300 9.4006209e+08 
   96310 9.3236108e+08 
   96320 9.4432106e+08 
   96330 1.0004759e+09 
   96340 9.1278882e+08 
   96350 9.3506211e+08 
   96360 9.1536966e+08 
   96370 9.2943332e+08 
   96380 9.5606823e+08 
   96390 9.8260789e+08 
   96400 9.5258851e+08 
   96410 9.8273703e+08 
   96420 9.5508168e+08 
   96430 1.0053509e+09 
   96440 9.3311629e+08 
   96450 9.5132003e+08 
   96460 9.5436033e+08 
   96470 9.7172427e+08 
   96480 9.6592343e+08 
   96490 9.6519652e+08 
   96500 9.3864598e+08 
   96510 9.5093318e+08 
   96520 9.2784912e+08 
   96530 9.1502606e+08 
   96540 9.3811192e+08 
   96550 9.2936775e+08 
   96560 9.4141207e+08 
   96570 9.828906e+08 
   96580 9.6409911e+08 
   96590 9.8204742e+08 
   96600 9.8986214e+08 
   96610 9.9493435e+08 
   96620 9.4299577e+08 
   96630 9.4044387e+08 
   96640 9.508151e+08 
   96650 9.7214458e+08 
   96660 9.4486871e+08 
   96670 9.3852343e+08 
   96680 9.2294448e+08 
   96690 1.0006513e+09 
   96700 9.5625293e+08 
   96710 9.2039147e+08 
   96720 9.7366164e+08 
   96730 9.5661489e+08 
   96740 9.7220923e+08 
   96750 9.7219094e+08 
   96760 9.7106067e+08 
   96770 9.543261e+08 
   96780 9.0295454e+08 
   96790 1.0078116e+09 
   96800 9.485481e+08 
   96810 9.2606097e+08 
   96820 9.5894003e+08 
   96830 9.521376e+08 
   96840 9.3411187e+08 
   96850 9.2707335e+08 
   96860 9.6743255e+08 
   96870 9.1596385e+08 
   96880 9.4752094e+08 
   96890 9.2060884e+08 
   96900 9.3456031e+08 
   96910 9.5174517e+08 
   96920 9.5766743e+08 
   96930 9.8406386e+08 
   96940 9.7594445e+08 
   96950 9.9084093e+08 
   96960 9.5844858e+08 
   96970 9.8950429e+08 
   96980 9.442574e+08 
   96990 9.6914974e+08 
   97000 9.2833394e+08 
   97010 9.736821e+08 
   97020 9.2560861e+08 
   97030 9.7960374e+08 
   97040 9.5247964e+08 
   97050 9.5368621e+08 
   97060 9.4836581e+08 
   97070 9.7310226e+08 
   97080 9.4881079e+08 
   97090 9.9257346e+08 
   97100 9.7156062e+08 
   97110 9.956001e+08 
   97120 9.9295271e+08 
   97130 9.242413e+08 
   97140 9.9893993e+08 
   97150 9.7166657e+08 
   97160 9.390609e+08 
   97170 9.2687002e+08 
   97180 9.4880422e+08 
   97190 9.7905758e+08 
   97200 9.6583222e+08 
   97210 9.4745695e+08 
   97220 9.613021e+08 
   97230 9.5957597e+08 
   97240 9.3626063e+08 
   97250 1.0156766e+09 
   97260 9.8829002e+08 
   97270 9.5771626e+08 
   97280 9.6010455e+08 
   97290 9.6454095e+08 
   97300 1.0104461e+09 
   97310  9.59903e+08 
   97320 9.4771223e+08 
   97330 9.885138e+08 
   97340 9.5059429e+08 
   97350 9.4234395e+08 
   97360 9.8690996e+08 
   97370 1.0053438e+09 
   97380 9.9488575e+08 
   97390 9.4372617e+08 
   97400 9.3315013e+08 
   97410 9.7723052e+08 
   97420 9.5227582e+08 
   97430 9.3565271e+08 
   97440 9.6355832e+08 
   97450 9.7776537e+08 
   97460 9.7536637e+08 
   97470 9.4636003e+08 
   97480 9.9622846e+08 
   97490 9.4689173e+08 
   97500 9.8424827e+08 
   97510 9.8805448e+08 
   97520 9.6242718e+08 
   97530 9.3575014e+08 
   97540 9.6999221e+08 
   97550 9.2999174e+08 
   97560 9.239823e+08 
   97570 9.5168268e+08 
   97580 9.5420998e+08 
   97590 9.0612581e+08 
   97600 9.7188785e+08 
   97610 9.5038234e+08 
   97620 9.330371e+08 
   97630 9.4160711e+08 
   97640 9.7578725e+08 
   97650 9.7321851e+08 
   97660 9.7391157e+08 
   97670 9.6571181e+08 
   97680 9.9775559e+08 
   97690 9.6752696e+08 
   97700 9.7999788e+08 
   97710 9.8563623e+08 
   97720 9.6138395e+08 
   97730 1.0011941e+09 
   97740 9.9046571e+08 
   97750 9.7361348e+08 
   97760 9.5828515e+08 
   97770 9.1633331e+08 
   97780 8.8893528e+08 
   97790 9.2335839e+08 
   97800 9.762434e+08 
   97810 9.8250999e+08 
   97820 9.4655588e+08 
   97830 9.8884286e+08 
   97840 9.5620365e+08 
   97850 9.6565483e+08 
   97860 9.6514981e+08 
   97870 9.6303292e+08 
   97880 9.476671e+08 
   97890 9.4162853e+08 
   97900 9.171076e+08 
   97910 9.217789e+08 
   97920 9.2129386e+08 
   97930 9.2268137e+08 
   97940 9.2858786e+08 
   97950 1.0089283e+09 
   97960 9.6485728e+08 
   97970 9.729186e+08 
   97980 9.635949e+08 
   97990 9.8396864e+08 
   98000 9.8892677e+08 
   98010 9.3777571e+08 
   98020 9.4865071e+08 
   98030 9.3697598e+08 
   98040 9.3779175e+08 
   98050 9.4069184e+08 
   98060 9.6537149e+08 
   98070 9.8267917e+08 
   98080 9.6361672e+08 
   98090 9.1141835e+08 
   98100 9.4388713e+08 
   98110 9.4611992e+08 
   98120 9.6375369e+08 
   98130 9.2248102e+08 
   98140 9.8546296e+08 
   98150 9.4147955e+08 
   98160 9.7611799e+08 
   98170 9.4227522e+08 
   98180 1.0000837e+09 
   98190 9.4830229e+08 
   98200 9.6475368e+08 
   98210 9.9132284e+08 
   98220 9.3306838e+08 
   98230 9.7488288e+08 
   98240 9.5588567e+08 
   98250 9.4748546e+08 
   98260 1.0101817e+09 
   98270 9.8546588e+08 
   98280 8.966036e+08 
   98290 9.4228701e+08 
   98300 9.8558978e+08 
   98310 9.2097427e+08 
   98320 9.9629984e+08 
   98330 9.4999264e+08 
   98340 9.9190675e+08 
   98350 9.7679982e+08 
   98360 9.2701471e+08 
   98370 9.1151329e+08 
   98380 9.5869205e+08 
   98390 9.7742492e+08 
   98400 9.4267351e+08 
   98410 9.8819857e+08 
   98420 9.7169115e+08 
   98430 9.5996208e+08 
   98440 9.360321e+08 
   98450 9.8912117e+08 
   98460 9.5077055e+08 
   98470 9.8907229e+08 
   98480 9.2312293e+08 
   98490 9.5219406e+08 
   98500 9.645243e+08 
   98510 9.3059559e+08 
   98520 9.7840176e+08 
   98530 9.4254076e+08 
   98540 9.5757944e+08 
   98550 9.526074e+08 
   98560 9.1737277e+08 
   98570 9.3355166e+08 
   98580 9.4392018e+08 
   98590 9.7592263e+08 
   98600 9.372438e+08 
   98610 9.8103743e+08 
   98620 9.9354136e+08 
   98630 9.6877343e+08 
   98640 9.4944999e+08 
   98650 9.5665712e+08 
   98660 9.8976417e+08 
   98670 9.434926e+08 
   98680 9.6113034e+08 
   98690 9.645589e+08 
   98700 9.8162997e+08 
   98710 9.6646592e+08 
   98720 9.5519628e+08 
   98730 9.6339154e+08 
   98740 9.0836559e+08 
   98750 9.4571415e+08 
   98760 1.007117e+09 
   98770 9.6180609e+08 
   98780 9.5607928e+08 
   98790 9.3377531e+08 
   98800 1.0027293e+09 
   98810 9.680158e+08 
   98820 9.4682955e+08 
   98830 9.969196e+08 
   98840 1.0032015e+09 
   98850 9.4825427e+08 
   98860 9.2968326e+08 
   98870 1.0033028e+09 
   98880 9.9330548e+08 
   98890 9.4861124e+08 
   98900 9.5523579e+08 
   98910 9.5843403e+08 
   98920 9.6263471e+08 
   98930 9.7681494e+08 
   98940 9.7577446e+08 
   98950 9.6047226e+08 
   98960 1.0026155e+09 
   98970 9.4713364e+08 
   98980 9.7023554e+08 
   98990 1.0008528e+09 
   99000 8.9848956e+08 
   99010 9.1678883e+08 
   99020 9.7748031e+08 
   99030 9.9211263e+08 
   99040 9.7018664e+08 
   99050 9.6185938e+08 
   99060 9.5267058e+08 
   99070 9.9353449e+08 
   99080 9.5512744e+08 
   99090 9.6028542e+08 
   99100 9.6823137e+08 
   99110 9.583873e+08 
   99120 9.7934882e+08 
   99130 9.0317954e+08 
   99140 9.2813976e+08 
   99150 9.9120572e+08 
   99160 9.5460459e+08 
   99170 9.8231035e+08 
   99180 9.5126832e+08 
   99190 9.1059793e+08 
   99200 9.5647023e+08 
   99210 9.6384541e+08 
   99220 9.4810832e+08 
   99230 1.0080021e+09 
   99240 9.3423759e+08 
   99250 9.9870346e+08 
   99260 9.7076621e+08 
   99270 9.9026295e+08 
   99280 9.8255669e+08 
   99290 9.4330081e+08 
   99300 9.8765675e+08 
   99310 8.8809285e+08 
   99320 9.4279065e+08 
   99330 9.3285757e+08 
   99340 9.9818804e+08 
   99350 9.5089548e+08 
   99360 1.0160198e+09 
   99370 9.6114581e+08 
   99380 9.7844991e+08 
   99390 9.7536222e+08 
   99400 9.1016782e+08 
   99410 9.1974289e+08 
   99420 9.5633202e+08 
   99430 9.6698631e+08 
   99440 9.4577891e+08 
   99450 9.6337555e+08 
   99460 9.4964996e+08 
   99470 1.0102787e+09 
   99480 9.4745381e+08 
   99490 9.4840665e+08 
   99500 9.7888919e+08 
   99510 9.2089951e+08 
   99520 9.1806802e+08 
   99530 9.5183762e+08 
   99540 9.5928346e+08 
   99550 9.2363193e+08 
   99560 9.3712123e+08 
   99570 9.5843909e+08 
   99580 9.4914488e+08 
   99590 9.3076081e+08 
   99600 9.5416755e+08 
   99610 9.3729009e+08 
   99620 9.4038931e+08 
   99630 9.3427213e+08 
   99640 9.2102506e+08 
   99650 9.477846e+08 
   99660 9.4480979e+08 
   99670 1.0172178e+09 
   99680 9.6271343e+08 
   99690 9.1787946e+08 
   99700 9.5621421e+08 
   99710 9.2180428e+08 
   99720 9.6907173e+08 
   99730 9.5901208e+08 
   99740 9.2188669e+08 
   99750 9.7285856e+08 
   99760 9.832755e+08 
   99770 9.667072e+08 
   99780 9.6595735e+08 
   99790 9.4547962e+08 
   99800 9.2245681e+08 
   99810 9.3124067e+08 
   99820 9.5941537e+08 
   99830 9.3279197e+08 
   99840 9.6612489e+08 
   99850 9.2728314e+08 
   99860 9.5578483e+08 
   99870 9.9317018e+08 
   99880 9.6304402e+08 
   99890 9.2047014e+08 
   99900 9.3447565e+08 
   99910 9.1310052e+08 
   99920 9.9032839e+08 
   99930 9.1716192e+08 
   99940 9.7737826e+08 
   99950 9.8729031e+08 
   99960 9.6061053e+08 
   99970 9.520023e+08 
   99980 9.5858089e+08 
   99990 9.6985614e+08 
  100000  9.56435e+08 
Loop time of 5334.76 on 2 procs for 100000 steps with 1000 atoms

Pair  time (%) = 4718.47 (88.4476)
Neigh time (%) = 30.3579 (0.569059)
Comm  time (%) = 340.982 (6.3917)
Outpt time (%) = 229.877 (4.30904)
Other time (%) = 15.0775 (0.282628)

Nlocal:    500 ave 505 max 495 min
Histogram: 1 0 0 0 0 0 0 0 0 1
Nghost:    2109.5 ave 2113 max 2106 min
Histogram: 1 0 0 0 0 0 0 0 0 1
Neighs:    23340.5 ave 23683 max 22998 min
Histogram: 1 0 0 0 0 0 0 0 0 1
FullNghs: 46681 ave 47259 max 46103 min
Histogram: 1 0 0 0 0 0 0 0 0 1

Total # of neighbors = 93362
Ave neighs/atom = 93.362
Neighbor list builds = 10000
Dangerous builds = 10000
