ITEM: TIMESTEP
430
ITEM: NUMBER OF ATOMS
1600
ITEM: BOX BOUNDS pp pp pp
0 0.001
0 0.001
-1e-06 1e-06
ITEM: ATOMS id type x y vx vy c_rho_peratom c_e_peratom 
1 1 1.24832e-07 2.93889e-07 0.00119194 0.000728013 992.974 8.06464e-13 
2 1 2.52323e-05 0.000999529 0.00114056 -0.000453649 1000.31 1.06618e-12 
3 1 5.00787e-05 0.000999473 -0.000983141 -0.000506793 1002.92 1.48781e-12 
4 1 7.51369e-05 3.11225e-07 0.000533836 0.00220128 999.156 9.24667e-13 
5 1 9.96162e-05 0.000999894 -0.000259061 -9.01648e-05 989.463 1.24771e-12 
6 1 0.000125488 0.000999266 0.000675045 -0.00133049 994.683 2.02036e-12 
7 1 0.00015006 2.32495e-07 -0.00135468 0.0015985 1007.75 9.9319e-13 
8 1 0.000174873 2.34404e-07 -0.000314751 0.000919744 1005.24 7.22778e-13 
9 1 0.000200398 0.00099994 0.00207212 -0.000540537 1002 9.36e-13 
10 1 0.000225181 0.000999661 3.92649e-05 -0.00125299 1000.49 1.43305e-12 
11 1 0.000250478 0.000999436 0.0020674 -0.000812432 994.703 2.02585e-12 
12 1 0.000275321 0.000999938 5.01537e-05 -0.00043478 991.192 1.1868e-12 
13 1 0.000300354 4.1417e-07 0.00137966 0.00188492 994.192 1.57921e-12 
14 1 0.000325399 2.52939e-07 -0.000363809 0.0021364 1001.21 1.4114e-12 
15 1 0.000349512 1.28537e-07 -0.00250054 -0.000618722 1002.13 1.18931e-12 
16 1 0.000374537 0.000999427 -0.00171344 -0.000638807 994.704 1.52767e-12 
17 1 0.000399451 3.18599e-07 -0.000252468 0.00185703 991.317 1.76764e-12 
18 1 0.000424874 1.98712e-07 -0.000342091 0.00170771 989.065 1.00475e-12 
19 1 0.000450198 0.000999935 0.00239026 -0.000269742 991.634 1.01955e-12 
20 1 0.000475141 0.000999484 0.000173106 -0.0018179 994.745 1.25049e-12 
21 1 0.000500134 3.70232e-07 0.000974709 0.000853846 993.474 8.73108e-13 
22 1 0.00052496 0.000999425 1.91898e-05 -0.0016527 998.231 1.17545e-12 
23 1 0.000550406 0.00099951 0.00131511 -0.00130477 998.027 1.44036e-12 
24 1 0.000575016 0.000999736 -0.000616705 -0.00125478 993.582 1.0718e-12 
25 1 0.000599857 0.000999927 -0.000398418 0.000176281 988.831 1.20197e-12 
26 1 0.000625411 0.00099936 -0.000915197 -0.00263627 995.258 1.90859e-12 
27 1 0.000650281 3.37143e-08 0.00197981 -0.000595286 1007.09 9.50796e-13 
28 1 0.000674886 -4.24017e-08 0.000447465 -0.000927427 1003.15 9.2288e-13 
29 1 0.00069996 0.000999876 0.00135498 -0.00143655 995.174 9.57378e-13 
30 1 0.000725554 0.00099993 0.00322283 -0.000358078 997.476 1.5605e-12 
31 1 0.00075042 0.000999292 0.000540137 -0.00147589 998.114 2.46703e-12 
32 1 0.000775421 0.000999899 -0.000186194 -0.000979556 996.229 1.09203e-12 
33 1 0.000800055 3.05488e-07 0.000714089 0.00204976 997.64 8.9676e-13 
34 1 0.000825544 8.82678e-08 -0.000415355 0.000291666 1000.91 1.30209e-12 
35 1 0.000849734 2.32294e-07 -0.00140688 0.00171145 1005.68 1.14935e-12 
36 1 0.000874501 0.000999205 -0.000809294 -0.00247657 1001.38 2.29477e-12 
37 1 0.000899089 2.58854e-07 -0.00298514 0.000335694 992.712 2.90655e-12 
38 1 0.000924964 -3.54274e-08 -0.000446011 0.000664664 991.263 9.84565e-13 
39 1 0.000950066 0.000999874 -0.000656899 0.000240076 994.889 7.47326e-13 
40 1 0.000975268 0.000999456 0.0009868 -0.00129496 994.3 1.50544e-12 
41 1 1.31954e-07 2.5382e-05 -0.000745471 -4.69012e-05 997.92 8.39389e-13 
42 1 2.49451e-05 2.51685e-05 0.000599709 -5.85023e-05 998.865 6.46001e-13 
43 1 4.96805e-05 2.48089e-05 0.000202241 -0.00187429 997.56 1.03982e-12 
44 1 7.45999e-05 2.53938e-05 -0.00101228 0.00115341 996.753 9.95621e-13 
45 1 9.97275e-05 2.512e-05 -0.0022053 -0.000932007 993.162 1.15182e-12 
46 1 0.000125325 2.54349e-05 0.00237846 0.00102151 997.207 1.9661e-12 
47 1 0.000150101 2.48016e-05 4.17252e-05 -0.000545475 1005.72 8.16795e-13 
48 1 0.00017527 2.49206e-05 0.00138277 -0.000584631 1005.34 8.1659e-13 
49 1 0.000199343 2.5213e-05 -0.00198797 -0.00108781 1000.8 1.6645e-12 
50 1 0.000225107 2.53159e-05 0.00173924 0.00182198 997.628 1.26074e-12 
51 1 0.000249463 2.5939e-05 -0.00163307 0.00215146 997.763 3.24835e-12 
52 1 0.000274982 2.5112e-05 0.000825225 0.00123659 997.412 8.66479e-13 
53 1 0.000299868 2.52601e-05 -0.00141424 -0.000465267 998.656 9.78093e-13 
54 1 0.000325241 2.48949e-05 0.00241543 0.000398258 1009.73 1.17547e-12 
55 1 0.000349821 2.5356e-05 -0.00112071 0.00103827 1009.77 1.28368e-12 
56 1 0.000375066 2.50149e-05 0.000242727 0.000310785 997.58 6.34404e-13 
57 1 0.00040032 2.53135e-05 0.000465693 0.000655077 996.583 9.30592e-13 
58 1 0.000425135 2.47716e-05 0.000726938 -0.000855245 994.222 8.30492e-13 
59 1 0.00045032 2.52179e-05 -8.98611e-05 0.000331262 999.235 1.06459e-12 
60 1 0.000474488 2.5266e-05 -0.00102379 0.000741161 1002.52 1.17013e-12 
61 1 0.000500101 2.55793e-05 -0.00146165 0.00104055 998.665 1.18944e-12 
62 1 0.000525139 2.53129e-05 0.000638568 0.00185118 999.339 8.97175e-13 
63 1 0.000549335 2.51428e-05 -0.00220484 0.000929986 995.782 1.39104e-12 
64 1 0.000574692 2.56571e-05 -0.000835698 0.00275081 992.57 1.75414e-12 
65 1 0.000599683 2.52222e-05 -0.000830932 0.000288296 990.59 1.39442e-12 
66 1 0.000625359 2.54758e-05 0.00182367 0.00189288 996.822 2.08836e-12 
67 1 0.000650161 2.48674e-05 -0.000310694 -2.87983e-05 1004.97 9.28274e-13 
68 1 0.000674862 2.52519e-05 -0.000693373 0.00239147 1001.85 7.75271e-13 
69 1 0.000699788 2.57265e-05 -0.00311152 0.00343514 1001.14 2.04415e-12 
70 1 0.000724889 2.52963e-05 5.19625e-05 0.000856709 1002.82 1.36212e-12 
71 1 0.000749355 2.60353e-05 -0.00232166 0.00274653 1001.6 4.15338e-12 
72 1 0.000774837 2.5096e-05 -0.00055028 6.51543e-05 998.744 1.03703e-12 
73 1 0.000799861 2.51959e-05 -0.00100519 -0.000141752 998.554 8.80307e-13 
74 1 0.000825069 2.48185e-05 0.00184797 -0.00040024 1006.56 9.04797e-13 
75 1 0.000849825 2.5358e-05 -0.000486373 0.00157464 1007.71 1.18579e-12 
76 1 0.00087512 2.48139e-05 0.00025657 4.21703e-05 996.839 9.08709e-13 
77 1 0.000900524 2.52911e-05 0.00186712 0.00109953 995.201 1.55045e-12 
78 1 0.000925259 2.49411e-05 0.00107677 -0.000219029 995.602 8.12093e-13 
79 1 0.000950287 2.53e-05 0.000408811 0.00186808 1001.73 1.11636e-12 
80 1 0.000974458 2.53749e-05 -0.0026067 0.00129548 1002.36 1.46495e-12 
81 1 0.000999589 4.97719e-05 0.000868862 -0.00152612 1001.49 9.07094e-13 
82 1 2.47395e-05 5.02524e-05 -3.86274e-05 0.00128773 999.02 5.92602e-13 
83 1 4.93712e-05 4.9909e-05 -0.00113966 0.000957727 994.939 1.26547e-12 
84 1 7.50949e-05 4.99969e-05 0.000181465 -0.00146434 997.36 7.64079e-13 
85 1 0.000100232 5.00269e-05 0.000369958 -0.000654112 1002.5 7.04417e-13 
86 1 0.000124842 4.94292e-05 -0.000531126 -0.000706697 1002.45 1.22494e-12 
87 1 0.00014962 4.98779e-05 -0.000934148 -0.00174425 1002.74 9.89732e-13 
88 1 0.000174957 5.03005e-05 -0.000346046 0.00161687 1004.62 8.15759e-13 
89 1 0.000199855 4.99987e-05 -0.00211981 -0.000238243 1002.55 6.7882e-13 
90 1 0.000225194 4.94439e-05 0.000421912 -0.000909347 1002.57 1.289e-12 
91 1 0.000250335 5.02275e-05 0.000772671 -0.000300327 1008.84 1.2641e-12 
92 1 0.000275169 4.94592e-05 0.000516179 5.21269e-05 1002.3 1.40309e-12 
93 1 0.00030013 5.03398e-05 0.0012818 0.00195094 994.982 7.72861e-13 
94 1 0.000325839 4.96694e-05 0.00195391 0.00055716 1004.55 1.8684e-12 
95 1 0.000349868 4.94998e-05 0.000983157 -0.00226908 1007.51 1.49342e-12 
96 1 0.000375033 5.03077e-05 -0.000423493 -0.00028764 1004.84 9.96367e-13 
97 1 0.000399605 5.00481e-05 -0.00207615 -0.000275734 1003.24 8.9319e-13 
98 1 0.000424484 5.00484e-05 -0.0011558 -0.000265314 994.113 9.48878e-13 
99 1 0.000450208 5.00598e-05 0.00119741 0.0015828 999.105 8.84052e-13 
100 1 0.000474958 4.98183e-05 -0.00121515 0.000147663 1005.81 8.18107e-13 
101 1 0.000499343 4.99312e-05 -0.00163527 -0.000114348 1004.66 1.20019e-12 
102 1 0.000524514 5.02367e-05 -0.0016078 0.00086433 1003.06 9.37971e-13 
103 1 0.000549259 4.98188e-05 -0.000832254 -0.000614399 998.343 1.60379e-12 
104 1 0.000575076 4.98929e-05 -0.00151058 -0.00138803 999.676 9.75919e-13 
105 1 0.000600056 5.00616e-05 -0.000247371 -0.000422516 1003.53 7.18253e-13 
106 1 0.000625162 4.93683e-05 0.00121017 -0.0028449 1005.25 1.41989e-12 
107 1 0.00064943 5.03308e-05 -8.98214e-05 3.40234e-05 1008.2 1.68499e-12 
108 1 0.000674866 5.03159e-05 -0.000298052 0.00175124 1006.16 1.20619e-12 
109 1 0.000700072 4.95432e-05 0.0010918 -0.00256898 1005.93 1.51908e-12 
110 1 0.000725247 4.93835e-05 0.000452024 -0.00164322 1007.01 1.79427e-12 
111 1 0.000750349 5.00642e-05 0.00157751 -0.000926273 1010.81 1.66601e-12 
112 1 0.000775181 4.94194e-05 0.00117156 -0.000634711 1002.68 1.66054e-12 
113 1 0.000800013 5.03424e-05 0.000509744 0.00172273 994.766 8.91e-13 
114 1 0.000825697 4.96164e-05 0.00183005 -0.00130587 1003.77 1.5285e-12 
115 1 0.000849882 4.95759e-05 0.000206855 -0.00216921 1004.51 1.05879e-12 
116 1 0.000874986 5.02546e-05 -0.000627245 0.00133955 1001.34 1.01049e-12 
117 1 0.000899691 5.00259e-05 -0.000603412 -0.000785298 1001.58 8.50439e-13 
118 1 0.000924367 4.99153e-05 -0.00222844 -0.000279744 995.089 1.21926e-12 
119 1 0.000950346 4.97797e-05 0.000805287 -0.00078393 1001.35 1.15999e-12 
120 1 0.000974934 4.98264e-05 -6.35427e-05 -0.000264516 1006.27 7.27306e-13 
121 1 0.000999561 7.5169e-05 -0.00214609 0.000638038 995.766 8.7015e-13 
122 1 2.52724e-05 7.48412e-05 -0.000329835 -0.000967483 997.598 8.67068e-13 
123 1 5.04918e-05 7.53314e-05 0.000671634 0.00286204 998.494 1.58564e-12 
124 1 7.58615e-05 7.49421e-05 0.00215557 0.000187951 999.682 1.82615e-12 
125 1 0.000100204 7.49604e-05 0.000981228 0.00113737 1000.55 6.69075e-13 
126 1 0.00012545 7.51874e-05 0.00318779 0.00146681 996.619 9.41369e-13 
127 1 0.000150326 7.49654e-05 0.000885268 0.00117956 999.423 6.73434e-13 
128 1 0.000175175 7.46296e-05 0.00114961 -0.00220887 1003.75 8.77641e-13 
129 1 0.000199856 7.50634e-05 -7.76083e-05 -4.25614e-05 1000.14 5.15684e-13 
130 1 0.000224817 7.49164e-05 -0.000394677 -0.000183783 999.184 5.57108e-13 
131 1 0.000250064 7.48164e-05 -0.000136921 0.000375153 1004.31 7.73011e-13 
132 1 0.000274415 7.51451e-05 -0.00105918 -0.000501485 998.65 1.26751e-12 
133 1 0.000300083 7.5222e-05 0.000267444 0.000544223 993.359 6.37556e-13 
134 1 0.00032482 7.48808e-05 -0.000281742 -0.000528812 993.51 7.48613e-13 
135 1 0.000349773 7.49179e-05 -0.00087938 0.000971105 989.341 1.07029e-12 
136 1 0.000375499 7.45436e-05 0.00264734 0.000615212 998.37 2.14769e-12 
137 1 0.000399694 7.54262e-05 -0.00112504 0.00045126 1007.76 1.20275e-12 
138 1 0.000424941 7.5654e-05 -0.000461403 0.00133819 1004.43 1.40737e-12 
139 1 0.000449508 7.48959e-05 -0.0025573 0.000132291 1000.56 1.38695e-12 
140 1 0.000474991 7.52465e-05 0.000315587 -0.000143398 996.148 6.87026e-13 
141 1 0.000499932 7.51284e-05 0.00174405 0.000699958 995.688 8.39585e-13 
142 1 0.000525446 7.48617e-05 0.00192946 0.00031252 999.252 1.20131e-12 
143 1 0.000550711 7.51945e-05 0.00154669 0.00126849 998.324 1.79199e-12 
144 1 0.000575856 7.49519e-05 0.00143955 0.000231579 1001.31 1.91189e-12 
145 1 0.000600161 7.49233e-05 0.00105643 0.000441934 1002.33 6.94807e-13 
146 1 0.000625285 7.50993e-05 0.00181299 0.000674732 996.485 8.37674e-13 
147 1 0.000650261 7.46675e-05 9.46834e-05 -0.00109432 999.856 1.16709e-12 
148 1 0.0006753 7.46214e-05 0.000653598 -0.00100279 1002.25 1.08517e-12 
149 1 0.00069989 7.48705e-05 -0.000791034 -0.000760046 996.108 7.02815e-13 
150 1 0.000724828 7.51013e-05 0.000822833 0.00110155 995.183 8.21943e-13 
151 1 0.000750233 7.45692e-05 -0.000445551 -0.000956671 1001.37 1.11537e-12 
152 1 0.000774176 7.52703e-05 -0.00199603 -0.000436948 995.918 2.42247e-12 
153 1 0.000800458 7.5042e-05 0.00258352 -0.00149807 992.985 1.21664e-12 
154 1 0.000824833 7.50205e-05 -0.00150545 0.0010543 996.011 7.82113e-13 
155 1 0.000849626 7.49542e-05 -0.00127947 0.000540254 990.898 1.1558e-12 
156 1 0.000875457 7.45244e-05 0.00169226 -0.00113308 997.856 1.96798e-12 
157 1 0.000899732 7.55083e-05 -0.000163393 0.00110021 1005.18 1.30597e-12 
158 1 0.000924956 7.56598e-05 0.00108964 0.000693621 1001.9 1.64425e-12 
159 1 0.0009497 7.47227e-05 -0.000411547 -0.000429027 1000.2 1.14915e-12 
160 1 0.000974848 7.54702e-05 -0.000554244 0.00176044 999.195 9.30428e-13 
161 1 6.12692e-07 0.000100226 0.00231044 0.00123331 999.449 1.32125e-12 
162 1 2.51306e-05 0.000100204 -0.000114506 0.000535192 1005.29 7.80415e-13 
163 1 4.94988e-05 9.96815e-05 0.000266092 -0.00279518 1004.33 1.60027e-12 
164 1 7.47071e-05 9.97736e-05 -0.00146013 -3.46188e-05 996.549 8.66431e-13 
165 1 9.97845e-05 0.000100072 -0.000329642 -0.000188965 996.983 6.28623e-13 
166 1 0.000124776 0.000100191 -0.00100068 -0.000277674 997.284 8.17182e-13 
167 1 0.000150546 9.97179e-05 0.000329495 -0.00124608 1001.4 9.80336e-13 
168 1 0.000175086 0.000100514 0.0011399 0.00107681 1004.97 1.11719e-12 
169 1 0.00019991 0.000100108 0.000966944 0.00231583 1002.22 4.92839e-13 
170 1 0.000225029 9.99844e-05 6.28638e-05 1.53509e-05 1000.89 3.43285e-13 
171 1 0.0002497 9.9611e-05 0.000546499 -0.00111076 1000.45 8.66065e-13 
172 1 0.000275078 9.99595e-05 0.000387236 0.000531378 998.197 5.50883e-13 
173 1 0.000300061 0.000100275 0.000506119 0.000327478 1002.65 7.08767e-13 
174 1 0.000325059 0.000100382 -0.00165234 0.000367428 1003.85 9.7858e-13 
175 1 0.000349997 0.000100678 0.000173397 0.000707587 995.147 1.49179e-12 
176 1 0.000375383 0.000100363 0.00108449 0.00127164 994.517 1.13722e-12 
177 1 0.000400174 9.97315e-05 -0.000194658 0.000592278 1003.93 1.01656e-12 
178 1 0.00042539 9.99025e-05 0.000616445 7.53016e-05 1008.03 9.34161e-13 
179 1 0.000449989 9.96056e-05 0.00137305 -0.0014869 1004.09 1.04208e-12 
180 1 0.000475105 0.000100359 -0.000449757 0.000862667 998.051 8.83454e-13 
181 1 0.000500711 0.000100114 0.00208848 -0.000609972 998.725 1.44533e-12 
182 1 0.000525027 0.000100269 0.000474809 0.000308382 1007.59 1.00628e-12 
183 1 0.000549334 9.98507e-05 -0.00205658 -0.00050465 1005.63 1.63654e-12 
184 1 0.000574652 9.98054e-05 -0.00132151 -0.000290184 998.225 8.53622e-13 
185 1 0.000599677 0.000100032 -0.00117374 -2.04662e-05 999.574 6.51144e-13 
186 1 0.000624382 0.000100206 -0.00315418 0.000448043 993.167 1.69569e-12 
187 1 0.000650829 9.97292e-05 0.00282168 -0.000263336 996.248 2.06756e-12 
188 1 0.000674899 0.000100708 -0.000270725 0.00284491 1004.14 1.79145e-12 
189 1 0.000700041 9.98714e-05 0.00108413 0.00024342 1002.02 6.86659e-13 
190 1 0.000725077 0.000100683 -0.000361215 0.00298707 1003.89 1.77597e-12 
191 1 0.000749552 9.9762e-05 -4.19924e-05 0.000628065 1000.89 1.07982e-12 
192 1 0.000775168 9.99084e-05 0.000220779 0.00129444 994.95 8.34301e-13 
193 1 0.000800184 0.000100233 0.00126927 8.26816e-05 1001.7 8.29463e-13 
194 1 0.000825094 0.000100245 -0.000407416 0.000451491 1004.6 8.1648e-13 
195 1 0.000850289 0.00010073 0.00204176 0.00233958 996.165 1.79425e-12 
196 1 0.00087521 0.000100219 -8.65574e-05 0.000905857 995.19 9.47385e-13 
197 1 0.000900031 9.98047e-05 -0.0030195 -0.000381863 1001.5 1.07018e-12 
198 1 0.000925527 9.98062e-05 0.00206024 -0.000831378 1005.54 1.24178e-12 
199 1 0.000949809 9.9654e-05 -0.00077368 -0.00225903 1001.67 1.03342e-12 
200 1 0.000975436 9.99637e-05 0.00113846 -0.000947217 997.967 1.13816e-12 
201 1 0.00099937 0.000125179 -0.0010538 1.68651e-05 998.896 1.39311e-12 
202 1 2.53116e-05 0.000124988 0.00068186 -9.38258e-05 1000.93 8.36106e-13 
203 1 4.94557e-05 0.000124758 -0.00223805 7.74199e-05 996.939 1.51802e-12 
204 1 7.47058e-05 0.000125078 -0.00013652 0.000394797 994.202 8.98326e-13 
205 1 0.000100093 0.000125438 -0.000234422 0.00136127 1002 1.01745e-12 
206 1 0.000125096 0.000124602 0.000179674 -0.00206012 1000.44 7.47209e-13 
207 1 0.000150164 0.000124628 9.07043e-05 -0.00177576 1001.71 8.19278e-13 
208 1 0.000174904 0.000125251 -0.00161073 0.00102758 1005.47 9.4331e-13 
209 1 0.000199921 0.000124813 -0.00100264 -0.000742569 1000.33 6.683e-13 
210 1 0.00022509 0.000124694 -0.000575583 0.000428897 995.831 7.33422e-13 
211 1 0.000249888 0.000124954 0.000709203 0.000589788 992.623 7.22334e-13 
212 1 0.000274918 0.000125331 0.000175956 0.00103475 996.54 8.80725e-13 
213 1 0.0002999 0.000124367 -0.00108581 -0.00154413 1003.1 1.35662e-12 
214 1 0.000324962 0.000124862 2.96201e-05 -0.000189173 1008.95 7.57568e-13 
215 1 0.000349707 0.000124978 -0.000463537 -0.000479029 1008.69 8.19858e-13 
216 1 0.000374796 0.000124809 0.000670237 0.000215885 997.735 7.32034e-13 
217 1 0.000400871 0.000125165 0.00121897 -0.000248096 999.115 1.76083e-12 
218 1 0.000425249 0.000124981 -3.60595e-05 9.34096e-05 1002.55 6.52563e-13 
219 1 0.000450368 0.000125192 0.00246809 0.000172669 1002.11 7.63124e-13 
220 1 0.000474798 0.000124874 -1.36714e-05 0.000432875 1001.06 8.26416e-13 
221 1 0.000499365 0.000125136 -0.00154259 -0.000215438 999.32 1.48489e-12 
222 1 0.000525451 0.000124997 0.00163786 0.000535109 1004.57 1.1795e-12 
223 1 0.000549504 0.000124639 -0.00072077 -0.000704606 999.261 1.58554e-12 
224 1 0.000574795 0.000124996 0.000133401 0.000106973 994.816 8.11605e-13 
225 1 0.000600234 0.000125373 0.00226633 0.000913031 1004.28 1.07305e-12 
226 1 0.000624909 0.000124716 -0.00123169 -0.00163981 999.451 8.81727e-13 
227 1 0.000650194 0.000124748 0.00125379 -0.00162463 999.847 8.55036e-13 
228 1 0.000674964 0.000125097 0.000651365 -0.000313358 1006.59 6.96407e-13 
229 1 0.000699602 0.000124985 -0.00238218 -0.00104025 1003.45 1.14043e-12 
230 1 0.000725043 0.000124124 0.00106924 -0.00213044 1001.82 2.18314e-12 
231 1 0.000749694 0.000125064 -0.000643145 -0.000583456 993.132 1.06175e-12 
232 1 0.000774965 0.000125142 0.000383568 -0.000380953 995.895 8.46456e-13 
233 1 0.000799961 0.000124494 -0.000464284 -0.00126924 1006.59 1.01341e-12 
234 1 0.000824905 0.000124999 -0.000765822 -0.000356219 1010.89 8.46647e-13 
235 1 0.000849545 0.000125065 -0.00123328 -0.000306754 1007.95 1.00459e-12 
236 1 0.00087485 0.000124837 0.000566291 -0.000111426 998.212 7.29163e-13 
237 1 0.000900757 0.000125421 0.00251754 0.00112452 999.906 1.77427e-12 
238 1 0.000925298 0.000124909 0.000822405 -4.77839e-05 1003.12 7.41457e-13 
239 1 0.000950104 0.000125398 -0.000436872 0.000828843 999.952 9.03209e-13 
240 1 0.000974622 0.000125 -0.0011814 0.000258554 999.03 1.00691e-12 
241 1 3.35589e-07 0.000149735 0.00173985 -0.000694256 998.535 1.19578e-12 
242 1 2.50306e-05 0.000150051 0.000969543 0.000839088 996.147 7.65254e-13 
243 1 5.06637e-05 0.00015068 0.00136765 0.00111374 1000.59 2.23652e-12 
244 1 7.57244e-05 0.000150185 0.00222652 0.000717607 1008.27 1.84913e-12 
245 1 9.97914e-05 0.000149837 -0.000990321 -0.000242966 1008.22 1.02294e-12 
246 1 0.000124702 0.000149445 -0.00143875 -0.000344317 995.301 1.14524e-12 
247 1 0.000150062 0.000150126 0.000373204 0.0012556 996.989 7.30767e-13 
248 1 0.000174846 0.000150106 0.000441109 -0.000429363 1004.39 8.23121e-13 
249 1 0.000199753 0.000150211 0.00050613 -0.000971246 999.776 8.99302e-13 
250 1 0.000224518 0.000150516 -0.00230898 0.00164732 995.308 1.76482e-12 
251 1 0.000249982 0.000149712 -0.00129984 -0.00185779 991.195 1.22851e-12 
252 1 0.000275792 0.000150149 0.00109081 0.000910148 999.818 1.89811e-12 
253 1 0.000299871 0.0001504 -5.67441e-06 0.00108779 1000.29 1.07898e-12 
254 1 0.000325539 0.000149535 0.00264525 -0.0014468 997.895 1.7172e-12 
255 1 0.000349756 0.000150158 -8.25407e-05 0.000589402 1003.2 7.83352e-13 
256 1 0.000374755 0.000149677 -0.000818601 -0.00169358 1000.97 6.7731e-13 
257 1 0.000399845 0.000149877 0.00116047 -0.000434953 1004.23 8.00502e-13 
258 1 0.000424401 0.000150263 -0.00158701 0.000261697 1007.31 1.45104e-12 
259 1 0.000449881 0.000150105 -0.000807634 0.000366646 1005.99 6.80672e-13 
260 1 0.000474633 0.000150505 -0.000812168 0.000589487 1004.41 1.35867e-12 
261 1 0.000500474 0.000149883 0.00165954 0.00063403 998.043 1.25673e-12 
262 1 0.000525013 0.000149684 0.000279286 -0.00206209 996.699 1.03735e-12 
263 1 0.000550569 0.000150672 0.00162691 0.00132465 998.414 2.10361e-12 
264 1 0.000575794 0.000150062 0.0025989 0.000362021 1005.3 1.84125e-12 
265 1 0.000599906 0.000149879 -0.000146993 -0.000736877 1008.63 8.67897e-13 
266 1 0.000624868 0.000149549 -0.0009274 0.000180681 997.042 9.08057e-13 
267 1 0.00065001 0.000150043 -0.000952155 0.000297924 995.477 6.15478e-13 
268 1 0.000675126 0.000150062 0.000963004 0.00114163 1002.45 4.80937e-13 
269 1 0.000700292 0.000150187 0.00271168 0.000715837 999.82 7.12606e-13 
270 1 0.000724623 0.000150449 -0.00264135 0.00089043 995.285 1.75272e-12 
271 1 0.000750131 0.000149879 -0.000855358 4.95187e-05 987.857 1.24596e-12 
272 1 0.00077614 0.000150051 0.00300795 0.000328103 999.509 2.97394e-12 
273 1 0.000799795 0.00015012 -0.00131903 -0.000752387 1004.41 9.525e-13 
274 1 0.000825404 0.000149505 0.00171338 -0.000411258 1000.3 1.5785e-12 
275 1 0.000849587 0.000150234 -0.000409273 0.00104754 1002.54 1.03727e-12 
276 1 0.00087486 0.000149587 5.77002e-05 -0.00132784 1000.87 7.48201e-13 
277 1 0.000899963 0.000149703 0.00075574 -0.00132345 1006.81 1.03467e-12 
278 1 0.000924408 0.000150392 -0.00183271 0.00208372 1010.49 1.8449e-12 
279 1 0.000949942 0.000150234 0.00052242 0.00112539 1009.26 9.09499e-13 
280 1 0.000974823 0.000150447 0.000471439 8.85514e-05 1007.4 1.16304e-12 
281 1 0.000999625 0.000175109 -0.00384935 0.00109358 997.432 1.58049e-12 
282 1 2.52063e-05 0.00017494 0.00168038 -0.000938631 1000.37 8.53708e-13 
283 1 5.04454e-05 0.000174454 0.00207843 -0.00175946 1006.74 1.62654e-12 
284 1 7.52048e-05 0.000175183 0.00110677 0.000665821 1010.17 1.20874e-12 
285 1 9.98845e-05 0.000174984 0.00141372 -0.000774194 1002.54 8.37001e-13 
286 1 0.000124837 0.000174869 0.00020787 -0.00197854 987.199 1.0847e-12 
287 1 0.000150651 0.000174741 0.00227201 -0.000522022 992.791 1.73038e-12 
288 1 0.000174994 0.000175043 0.00048685 0.000149596 997.099 6.89193e-13 
289 1 0.000200378 0.000174798 0.0024335 0.000289825 993.845 1.14692e-12 
290 1 0.000225569 0.000174642 0.00230697 -0.000724689 997.805 1.43202e-12 
291 1 0.00025038 0.00017538 0.00121053 0.00110035 1002.09 1.27734e-12 
292 1 0.000275155 0.000175242 0.000559008 -0.00110646 1007.99 1.03241e-12 
293 1 0.000299651 0.000174794 -0.000173067 -0.000162905 1001.84 9.95002e-13 
294 1 0.000324835 0.000175131 -0.00124767 0.000415288 992.327 9.04865e-13 
295 1 0.000350642 0.000175097 0.0014227 0.00134898 998.015 1.06367e-12 
296 1 0.000375224 0.000174737 0.000743675 2.47891e-05 1001.89 6.35664e-13 
297 1 0.000399883 0.000175078 6.05895e-05 0.00133057 1001.41 7.19956e-13 
298 1 0.000425112 0.000174315 0.00089298 -0.00148589 999.563 1.56833e-12 
299 1 0.000449933 0.000174574 -0.000814122 -0.00142414 1000.25 9.66801e-13 
300 1 0.000475396 0.000174484 0.000935429 -0.00124495 1001.84 1.25406e-12 
301 1 0.000499849 0.000175104 -0.00220309 0.000318549 998.415 9.64484e-13 
302 1 0.000525026 0.000174964 0.000117259 0.000169281 1000.5 6.56126e-13 
303 1 0.000550442 0.000174702 0.00152973 -0.000818793 1004.65 1.23082e-12 
304 1 0.000574878 0.000175111 -0.00183445 -3.03958e-05 1007.12 1.16223e-12 
305 1 0.000599936 0.000174763 -0.000456688 -0.00234729 1001.94 9.63527e-13 
306 1 0.000624653 0.000175146 -0.00117982 0.00134828 988.997 1.17851e-12 
307 1 0.000650584 0.000174558 0.00228287 -0.00204592 992.28 1.80944e-12 
308 1 0.000674785 0.000175203 -0.000139744 -0.000304713 996.01 9.42457e-13 
309 1 0.000700249 0.00017468 0.00137342 -0.000795397 992.464 1.26156e-12 
310 1 0.000725489 0.000174461 0.00226586 -0.000662834 994.112 1.59949e-12 
311 1 0.000750494 0.000175502 0.00137253 0.00163263 998.322 1.65626e-12 
312 1 0.00077515 0.000175388 0.000148598 -0.000115602 1005.7 1.1006e-12 
313 1 0.000799458 0.000174737 -0.00171168 -0.000119022 999.881 1.54779e-12 
314 1 0.00082476 0.000175018 -0.000426319 0.000200998 989.613 1.08185e-12 
315 1 0.000850849 0.000175155 0.00290905 0.0014509 995.332 1.73673e-12 
316 1 0.000875018 0.000174627 -0.0002971 -0.000744368 998.422 1.01712e-12 
317 1 0.000899932 0.000174965 -0.000481725 0.000842638 998.915 8.00156e-13 
318 1 0.000925107 0.000174075 0.00163467 -0.0036431 1000.97 2.74025e-12 
319 1 0.000950053 0.000174698 -0.000165919 0.000341783 1004.93 9.73483e-13 
320 1 0.000975138 0.000174395 9.20707e-06 -0.000908655 1004.58 1.26155e-12 
321 1 2.96915e-07 0.000199953 0.000935349 -0.00080182 995.023 8.07652e-13 
322 1 2.53381e-05 0.000199892 -0.00112075 -0.000319493 1003.79 9.25232e-13 
323 1 4.91654e-05 0.000199909 -0.00246765 -0.000394765 1001.18 1.99271e-12 
324 1 7.47867e-05 0.000199558 -0.000815029 -0.00151362 996.808 1.37179e-12 
325 1 9.983e-05 0.000200213 -0.00204644 0.0011717 1002.71 1.3897e-12 
326 1 0.000125041 0.00020066 0.00055573 0.002251 1006.43 2.06176e-12 
327 1 0.000149864 0.000200369 -0.00145641 0.000667706 1006.59 1.49974e-12 
328 1 0.00017479 0.000200197 -0.000255955 0.000795637 998.295 9.16599e-13 
329 1 0.000200335 0.000200724 0.000275011 0.00224393 993.312 1.84154e-12 
330 1 0.000225225 0.000200063 0.00114106 0.000682358 999.529 6.12163e-13 
331 1 0.000250086 0.000200163 0.00135882 0.000247004 1006.42 6.67682e-13 
332 1 0.000274569 0.000199775 -0.00204562 -0.00198034 1003.88 1.20169e-12 
333 1 0.000300095 0.000199946 0.000274832 -0.000838476 995.731 4.89205e-13 
334 1 0.000325054 0.000199997 -0.000207125 -0.00166299 996.975 5.4058e-13 
335 1 0.0003504 0.000200019 0.00093148 -0.00137381 1004.59 8.38519e-13 
336 1 0.000375018 0.00020026 -0.00117432 0.000151216 999.723 1.0657e-12 
337 1 0.000400297 0.00019947 -0.000317455 -0.00239452 991.893 1.59108e-12 
338 1 0.000425165 0.000200453 0.00139243 0.000569471 990.524 1.24402e-12 
339 1 0.000450302 0.00020009 0.0024607 -0.000453945 991.725 9.36048e-13 
340 1 0.000474809 0.000199908 -2.31465e-05 -9.2963e-05 993.775 6.80279e-13 
341 1 0.000500312 0.000199888 0.000794616 -0.00136087 995.837 7.71525e-13 
342 1 0.000525356 0.000200046 -6.13499e-05 0.000656131 1003.63 8.88237e-13 
343 1 0.000549239 0.00019984 -0.00145209 0.000194602 1002.07 1.78859e-12 
344 1 0.000574896 0.000199755 -0.000209805 -0.000634943 996.636 7.79459e-13 
345 1 0.000599982 0.00020006 -2.99354e-05 0.0014233 1001.84 7.53305e-13 
346 1 0.000625074 0.000200548 0.000871162 0.00155142 1006.4 1.62401e-12 
347 1 0.00065018 0.000200633 0.000640168 0.00265187 1006.88 2.14677e-12 
348 1 0.000674647 0.000200078 -0.000955914 0.000205338 1000.47 1.09418e-12 
349 1 0.000700114 0.000200698 -0.0010468 0.00267486 996.604 1.99014e-12 
350 1 0.00072521 0.000200465 0.00029363 0.000692152 1000.44 1.36931e-12 
351 1 0.000750008 0.000200093 0.000999616 7.55664e-05 1007.02 7.79296e-13 
352 1 0.000774762 0.000200215 0.000979376 0.000623323 1005.3 9.83968e-13 
353 1 0.000800165 0.00020021 -0.00155416 0.00111412 996.425 7.42852e-13 
354 1 0.000825149 0.000200012 0.00119891 -0.000848476 996.796 6.40941e-13 
355 1 0.000850263 0.000200076 0.000513505 1.69801e-05 1003.86 8.18693e-13 
356 1 0.000875442 0.000200559 0.00130443 0.00114268 1000.19 1.56833e-12 
357 1 0.000900163 0.000199594 0.00142587 -0.000594106 991.694 1.40052e-12 
358 1 0.000925286 0.000200603 -0.000433779 0.00177286 990.75 1.88855e-12 
359 1 0.000949917 0.000199885 -0.00114291 -0.00176625 992.293 1.25089e-12 
360 1 0.000974718 0.000199757 6.05295e-07 -0.00069222 992.804 1.01632e-12 
361 1 2.16351e-07 0.000225422 0.000642269 0.00103999 1002.88 1.06025e-12 
362 1 2.50135e-05 0.000224721 0.00126544 -0.000753964 1007.28 9.66547e-13 
363 1 4.98884e-05 0.000225091 -0.000947228 0.00125159 998.99 9.79053e-13 
364 1 7.52217e-05 0.000225175 -0.000930272 0.000908798 988.987 1.373e-12 
365 1 0.000100591 0.000224369 0.0026791 -0.00105885 994.755 2.8867e-12 
366 1 0.000125344 0.000224243 0.000323572 -0.00158204 1009.39 2.6822e-12 
367 1 0.000149393 0.00022482 -0.00121825 -0.000306495 1012 2.16464e-12 
368 1 0.000174334 0.000224778 -0.00246696 0.0001916 1008.06 1.73958e-12 
369 1 0.000199904 0.000224935 -0.000884973 0.00112185 1005.85 8.93112e-13 
370 1 0.000224632 0.000225312 0.000107569 -0.00141376 1003.19 1.11214e-12 
371 1 0.000250093 0.000224769 0.000640446 -0.000232959 1003.5 6.86684e-13 
372 1 0.00027505 0.000225082 -0.000296625 -0.000741035 1000.67 5.64157e-13 
373 1 0.000300311 0.000225344 0.00139321 0.00156462 997.531 9.56115e-13 
374 1 0.000325621 0.000224718 0.00286359 -0.000604279 1005.14 1.2469e-12 
375 1 0.000349932 0.000224912 -0.000458643 7.39938e-05 1009.26 9.79998e-13 
376 1 0.000374161 0.000225147 -0.000856293 0.00107357 1001.71 2.26829e-12 
377 1 0.000400093 0.000225439 0.000859679 0.00237485 999.053 1.19607e-12 
378 1 0.000424487 0.000225435 -0.000972578 0.00182477 999.913 1.53331e-12 
379 1 0.000449963 0.0002249 -0.000356959 0.000468071 996.582 7.65285e-13 
380 1 0.000475 0.000224888 -0.000239596 0.000163489 996.421 6.40477e-13 
381 1 0.000500219 0.000225761 0.000766617 0.00269404 1002.21 2.13292e-12 
382 1 0.000524954 0.000224708 0.000701121 -0.00158468 1006.46 9.69352e-13 
383 1 0.000550125 0.00022501 0.00150373 0.000860201 1001.72 9.12111e-13 
384 1 0.000575385 0.000225254 0.00111847 0.000730887 994.063 1.25045e-12 
385 1 0.000600396 0.000224572 0.00122051 -0.000632349 996.337 1.53109e-12 
386 1 0.000625278 0.000224181 5.28568e-06 -0.00173307 1008.08 2.40263e-12 
387 1 0.000649389 0.000224553 -0.00153287 -0.00135452 1010.27 2.36324e-12 
388 1 0.000674884 0.000225189 0.000483104 -0.000457555 1007.26 1.07035e-12 
389 1 0.000700062 0.00022445 -0.00145827 -0.000996578 1008.66 1.59707e-12 
390 1 0.000724373 0.000225185 -0.00151047 -0.00141234 1007.15 1.63529e-12 
391 1 0.00074987 0.000224721 -0.000296624 -0.00201245 1004.18 1.02937e-12 
392 1 0.000774623 0.000224913 -0.00163692 -0.0011269 1001.51 1.53278e-12 
393 1 0.000800493 0.000225004 0.00209022 -0.000604951 997.386 9.19883e-13 
394 1 0.000825625 0.000224775 0.0020578 -0.000408888 1005.28 1.12798e-12 
395 1 0.000850128 0.000224664 0.00142202 -0.0011894 1011.43 1.36644e-12 
396 1 0.000874223 0.000225348 -0.00200389 0.00318196 1006.78 2.74309e-12 
397 1 0.000899945 0.000225466 -0.00182161 0.00171178 1002.51 1.31484e-12 
398 1 0.000924495 0.000225269 -0.000331365 -0.000387652 999.38 1.51236e-12 
399 1 0.000950364 0.000224897 0.00233035 0.00046137 993.836 9.60203e-13 
400 1 0.00097533 0.000225197 0.00194464 0.00170488 994.208 1.16692e-12 
401 1 7.13219e-07 0.000249491 0.00431472 -0.00307857 1003.07 2.00475e-12 
402 1 2.51852e-05 0.000250069 -0.000168235 0.00131853 1007.98 8.65937e-13 