ITEM: TIMESTEP
730
ITEM: NUMBER OF ATOMS
1600
ITEM: BOX BOUNDS pp pp pp
0 0.001
0 0.001
-1e-06 1e-06
ITEM: ATOMS id type x y vx vy c_rho_peratom c_e_peratom 
1 1 9.05897e-08 2.68309e-07 -0.000357293 -0.000684944 990.689 1.39417e-12 
2 1 2.49116e-05 0.000999533 -0.0012529 0.000713155 996.399 1.73534e-12 
3 1 4.98375e-05 0.000999953 -0.000274386 0.0019777 998.749 2.89993e-12 
4 1 7.52959e-05 1.29119e-06 0.00100271 0.00411758 1003.38 3.13762e-12 
5 1 9.95154e-05 0.00099977 0.000623201 0.00027521 986.76 2.6484e-12 
6 1 0.000125755 0.000999151 0.00160899 -0.000314561 990.263 3.27056e-12 
7 1 0.000149752 5.69391e-07 -0.00106158 0.000176261 1009.96 1.96612e-12 
8 1 0.000174598 2.47319e-07 -0.00144643 -0.000590889 1005.89 1.45928e-12 
9 1 0.000200781 0.000999769 0.000856788 -0.000471282 999.777 2.05184e-12 
10 1 0.000225311 0.000999324 0.000366758 -0.000720931 997.816 2.8431e-12 
11 1 0.000250843 0.000999324 0.000550864 -0.000162626 993.188 2.9024e-12 
12 1 0.000275459 0.000999848 -0.0010138 -0.000752602 984.88 1.96402e-12 
13 1 0.000300516 6.31952e-07 0.000642752 -0.000246357 986.971 2.42927e-12 
14 1 0.000325237 4.06607e-07 -0.000784306 -0.000200111 997.571 2.13488e-12 
15 1 0.000349267 0.000999834 0.000588217 0.000382678 999.523 2.0619e-12 
16 1 0.000373856 0.000999074 -0.00274074 -0.00123025 988.051 3.86049e-12 
17 1 0.000399558 1.16331e-06 0.00163127 0.0028034 984.474 4.73378e-12 
18 1 0.000424414 8.31846e-07 -0.00103584 0.00197944 983.215 3.39484e-12 
19 1 0.00045049 0.000999769 -0.000190978 -0.000359073 984.838 2.67336e-12 
20 1 0.00047527 0.00099917 6.95194e-05 -0.000933916 994.273 2.14517e-12 
21 1 0.000500022 5.98546e-07 -0.00163224 0.000617483 993.908 1.68475e-12 
22 1 0.000524413 0.000998986 -0.00246745 -0.00216361 992.742 3.32524e-12 
23 1 0.000550698 0.000999537 -0.000236792 0.000401456 991.574 2.51994e-12 
24 1 0.000574752 0.000999814 -0.000440495 0.00112793 986.596 2.16651e-12 
25 1 0.000599687 0.000999999 -0.000392938 0.00141098 981.865 2.6552e-12 
26 1 0.000625067 0.000998929 -0.00204124 -0.000718455 992.266 3.93694e-12 
27 1 0.000650821 0.000999736 0.00105198 -0.00106543 1003.76 2.37904e-12 
28 1 0.000675122 0.000999588 0.00250842 -0.000733322 999.652 2.37649e-12 
29 1 0.000700263 0.000999374 -0.000175287 -0.00158662 991.311 3.3849e-12 
30 1 0.000726293 0.000999795 0.000239019 -0.000360452 999.962 3.82763e-12 
31 1 0.000750387 0.00099929 -0.00053105 0.00219588 1003.66 3.25422e-12 
32 1 0.000775171 3.4361e-08 -0.00137373 0.00157173 995.289 2.20012e-12 
33 1 0.000800335 3.73855e-07 1.82823e-05 -0.000332683 997.109 1.75557e-12 
34 1 0.000825547 3.89033e-07 0.000108255 0.00166843 1000.85 2.1309e-12 
35 1 0.000849497 4.52655e-07 -0.000493705 0.0011273 1004.8 2.36975e-12 
36 1 0.000874183 0.000998382 -0.000814727 -0.00265053 1002.42 4.5592e-12 
37 1 0.000898605 4.74246e-07 -0.000403066 -2.56948e-05 988.873 4.72296e-12 
38 1 0.00092487 1.95002e-07 -0.000809246 0.000159652 989.226 1.76327e-12 
39 1 0.00094994 6.05404e-08 0.00105422 -0.000785138 995.408 1.45217e-12 
40 1 0.000975329 0.000999584 -0.000677937 0.000781623 989.689 2.2783e-12 
41 1 0.000999952 2.5384e-05 -0.00151019 0.00176307 997.969 1.42571e-12 
42 1 2.4851e-05 2.50912e-05 -0.000282419 0.000551771 999.888 1.16277e-12 
43 1 4.97801e-05 2.42298e-05 0.000251123 -0.000946345 1002.18 3.00756e-12 
44 1 7.4082e-05 2.53893e-05 -0.0018561 -0.000274694 1005.17 2.57116e-12 
45 1 9.94716e-05 2.51204e-05 -0.000972188 0.000462289 993.727 2.05254e-12 
46 1 0.000125575 2.60965e-05 0.000384242 0.00266269 1000.17 4.3535e-12 
47 1 0.000150062 2.46938e-05 -0.000917393 -0.00027319 1010.91 1.76087e-12 
48 1 0.000175827 2.4781e-05 0.00247204 -0.000325015 1003.7 2.11385e-12 
49 1 0.000198887 2.51453e-05 -0.00110616 0.00128101 995.826 3.37065e-12 
50 1 0.000225766 2.58201e-05 0.00287978 0.000857181 995.468 3.4469e-12 
51 1 0.000249506 2.63574e-05 0.000834706 0.00115744 999.529 4.34257e-12 
52 1 0.000275177 2.55855e-05 0.0015189 0.0016479 994.867 1.76226e-12 
53 1 0.000300005 2.5203e-05 -3.75727e-05 -0.000151537 991.462 1.72762e-12 
54 1 0.000325888 2.50748e-05 0.00115978 -3.86337e-05 1010.97 2.92002e-12 
55 1 0.000349692 2.56241e-05 -0.000348196 -0.00102179 1015.81 2.74113e-12 
56 1 0.000375093 2.49155e-05 -9.62027e-05 -0.000794803 1001.37 1.27296e-12 
57 1 0.000399999 2.5496e-05 -0.00112419 0.00177176 1001.55 2.00842e-12 
58 1 0.000425542 2.43729e-05 8.21001e-05 -0.00114345 995.799 2.37186e-12 
59 1 0.000450108 2.52612e-05 -0.000170313 -0.00019685 1000.56 2.00945e-12 
60 1 0.0004738 2.57819e-05 -0.00216205 0.00272566 1004.99 3.41928e-12 
61 1 0.000499751 2.54083e-05 -0.000394815 -0.0030274 996.781 2.13632e-12 
62 1 0.000525029 2.59452e-05 -0.000305134 0.00276819 994.741 2.40875e-12 
63 1 0.000549236 2.54388e-05 0.000599347 0.00121012 995.294 2.25003e-12 
64 1 0.000574589 2.65216e-05 -2.58739e-05 0.00331027 996.731 3.72193e-12 
65 1 0.00059928 2.55366e-05 -0.00051915 0.000882365 985.753 3.12329e-12 
66 1 0.000626062 2.54217e-05 0.00216517 -0.000487442 993.542 4.79005e-12 
67 1 0.000650034 2.50912e-05 -3.44809e-05 0.00110376 1008.3 2.28091e-12 
68 1 0.000674888 2.60359e-05 0.0012724 0.00311036 1005.66 3.61026e-12 
69 1 0.000698722 2.656e-05 -0.00380078 0.00184802 1002.61 8.24808e-12 
70 1 0.000724693 2.55171e-05 -0.000296528 -0.000721227 1004.96 3.2777e-12 
71 1 0.000749143 2.62975e-05 4.50594e-05 -0.000918218 1008.33 5.61209e-12 
72 1 0.000774512 2.51344e-05 -0.00117295 0.000283139 997.364 2.01142e-12 
73 1 0.000799921 2.51747e-05 0.00049012 0.000471928 994.106 1.52229e-12 
74 1 0.000825447 2.48851e-05 0.000346884 0.000114672 1011.73 1.93305e-12 
75 1 0.000849819 2.58112e-05 -9.05909e-05 0.00133861 1015.24 2.74923e-12 
76 1 0.000875369 2.46649e-05 0.00217163 -0.000724818 999.276 1.64563e-12 
77 1 0.000900847 2.55567e-05 0.00134182 0.00212102 997.121 2.64382e-12 
78 1 0.000925235 2.47388e-05 -0.0004366 -0.000841435 1001.29 1.4213e-12 
79 1 0.000950162 2.56081e-05 -0.00093068 0.00117915 1009.79 2.1031e-12 
80 1 0.000973603 2.55053e-05 -0.00193168 -0.000745843 1005.61 3.69315e-12 
81 1 0.000999872 4.94489e-05 0.0015317 -0.00131021 1001.75 1.84059e-12 
82 1 2.49379e-05 5.0342e-05 -8.04173e-05 -0.00075411 998.482 1.35259e-12 
83 1 4.91222e-05 5.02749e-05 0.00138388 0.000681169 991.262 2.65875e-12 
84 1 7.52822e-05 4.97459e-05 0.000267147 -0.000660608 993.505 1.77783e-12 
85 1 0.000100174 4.97503e-05 -0.00268105 -0.00184918 998.401 1.62278e-12 
86 1 0.000124923 4.9167e-05 -6.97234e-05 -0.000341083 1003.97 2.3044e-12 
87 1 0.000149275 4.94422e-05 -0.00141838 -0.00144624 1005.78 2.56231e-12 
88 1 0.000174522 5.07855e-05 -0.00102435 0.00220509 1004.95 2.48277e-12 
89 1 0.000199854 4.99043e-05 0.000600647 -0.000351707 1001.62 1.45069e-12 
90 1 0.000225069 4.90455e-05 -0.0016717 -0.00168918 1003.04 2.23905e-12 
91 1 0.000250516 5.01187e-05 -1.96671e-05 -0.0013052 1016.89 2.13467e-12 
92 1 0.000275161 4.98129e-05 0.000934098 0.00153706 1007.9 2.18468e-12 
93 1 0.000299927 5.08515e-05 -0.00129538 0.000736781 992.862 1.80008e-12 
94 1 0.000326332 4.97966e-05 0.000657651 0.00083001 1006.84 2.98577e-12 
95 1 0.000349779 4.93319e-05 -0.00059472 0.00077461 1011.43 2.85119e-12 
96 1 0.000375117 4.99206e-05 0.000272784 -0.000876485 1005.88 2.08169e-12 
97 1 0.000399388 4.98069e-05 -0.000598154 -0.00178902 1002.85 1.56387e-12 
98 1 0.000424185 5.0086e-05 -0.000928092 -0.000804505 988.32 1.76179e-12 
99 1 0.000450441 5.05418e-05 0.00034383 0.000791787 997.591 2.60009e-12 
100 1 0.000475071 4.93634e-05 0.00121141 -0.00269675 1007.43 2.7908e-12 
101 1 0.000499059 5.02561e-05 -0.000722874 0.002151 1007.86 2.35379e-12 
102 1 0.000524241 5.03448e-05 -0.000748894 0.00071964 1009.99 1.89803e-12 
103 1 0.000548833 4.99092e-05 -0.0025029 0.00079591 1007.94 2.76009e-12 
104 1 0.000574697 4.94943e-05 -0.0007744 -0.00140812 1004.94 2.17558e-12 
105 1 0.000599863 4.98868e-05 -0.00176911 0.000106107 997.331 1.57802e-12 
106 1 0.000625606 4.85337e-05 0.00247582 -0.0024077 1002.89 4.07902e-12 
107 1 0.000649675 5.04965e-05 0.00123204 0.00169811 1019 3.46806e-12 
108 1 0.000674416 5.06534e-05 -0.00192555 1.45121e-05 1016.82 3.34879e-12 
109 1 0.00070059 4.87246e-05 0.00176542 -0.00296592 1008.67 5.50648e-12 
110 1 0.000725529 4.85985e-05 0.000708293 -0.0027931 1006.32 4.63235e-12 
111 1 0.000750691 5.00944e-05 0.00140378 0.00225574 1016.32 2.85746e-12 
112 1 0.000775323 4.94136e-05 0.00121387 0.000590973 1005.41 2.27436e-12 
113 1 0.000800242 5.08744e-05 0.000844219 0.00128916 993.805 1.91e-12 
114 1 0.000825833 4.94085e-05 1.7738e-05 -0.000290026 1008.47 2.3796e-12 
115 1 0.000850143 4.91363e-05 0.00173528 -0.00197066 1010.7 2.66985e-12 
116 1 0.000874595 5.01053e-05 -0.000924215 -0.00142104 1005.61 2.34777e-12 
117 1 0.000899419 4.96575e-05 -0.00287491 -0.00178454 1002.23 1.75684e-12 
118 1 0.000924232 4.9948e-05 0.000913851 -8.45912e-05 994.953 1.91198e-12 
119 1 0.000950421 4.95953e-05 -0.000295141 -0.000973891 1003.9 1.99092e-12 
120 1 0.000975415 4.95763e-05 0.00224286 -0.000800751 1006.38 2.05251e-12 
121 1 0.000999009 7.51582e-05 -0.00109864 -0.000221416 993.743 2.51646e-12 
122 1 2.51476e-05 7.43568e-05 -0.0010755 -0.00138217 997.63 2.08623e-12 
123 1 5.07022e-05 7.58777e-05 -0.00019885 0.000536987 1002.2 3.48611e-12 
124 1 7.62781e-05 7.52233e-05 0.000879149 0.00054301 999.907 2.92873e-12 
125 1 0.000100264 7.52463e-05 0.000914565 -0.000171443 997.099 1.41585e-12 
126 1 0.000126036 7.56102e-05 0.000764129 0.00173096 998.583 2.57051e-12 
127 1 0.000150283 7.53318e-05 -0.00056332 0.000778593 1001.9 1.66824e-12 
128 1 0.000175558 7.42539e-05 0.00145899 -0.000598543 1003.65 2.2973e-12 
129 1 0.000199449 7.50388e-05 -0.00199753 -0.00101062 998.477 1.9631e-12 
130 1 0.000224751 7.4871e-05 0.000250295 -0.000358508 994.538 1.20748e-12 
131 1 0.000249969 7.46124e-05 0.000241505 -0.000596613 1005.45 1.48287e-12 
132 1 0.000274727 7.48455e-05 0.00213733 0.000322657 1004.23 2.24586e-12 
133 1 0.000300376 7.56446e-05 0.000987712 0.00218036 999.621 1.4483e-12 
134 1 0.000324941 7.48057e-05 0.00147989 -0.000247841 997.928 1.16441e-12 
135 1 0.000349678 7.50566e-05 -0.000238861 -5.45762e-05 986.288 1.73265e-12 
136 1 0.000375819 7.50191e-05 0.00126402 0.00208038 997.724 3.54919e-12 
137 1 0.000399062 7.56709e-05 -0.00267281 0.000544166 1012.35 2.68495e-12 
138 1 0.000424805 7.61999e-05 0.000886316 0.00238849 1007.38 2.87708e-12 
139 1 0.000448666 7.48604e-05 -0.00397496 0.0010805 999.69 3.92917e-12 
140 1 0.000475176 7.53991e-05 0.000663864 0.0020183 991.591 1.56268e-12 
141 1 0.00050011 7.52765e-05 0.000567013 0.00212037 995.141 1.68179e-12 
142 1 0.00052596 7.43603e-05 0.00192271 -0.00300065 1005.12 2.94823e-12 
143 1 0.000551082 7.51659e-05 4.49406e-05 -0.00128697 1004.65 2.98029e-12 
144 1 0.000576191 7.52762e-05 0.00156321 0.000316004 1002.93 3.04001e-12 
145 1 0.000600289 7.50019e-05 0.000265336 0.00070559 998.301 1.4239e-12 
146 1 0.000625725 7.53648e-05 0.00108982 0.000474896 991.836 2.35853e-12 
147 1 0.000649827 7.46227e-05 -0.00204892 -0.000539844 1002.17 2.54531e-12 
148 1 0.000675575 7.44575e-05 0.000719726 -0.000360822 1000.8 2.06914e-12 
149 1 0.000699427 7.47799e-05 -0.000963342 0.00129554 983.568 2.68113e-12 
150 1 0.000724918 7.53905e-05 -0.000233573 0.00164301 981.335 2.15495e-12 
151 1 0.000750309 7.44136e-05 0.000745552 -0.00153102 997.102 1.70529e-12 
152 1 0.000773892 7.48382e-05 -0.000708481 -0.00253162 994.856 3.88612e-12 
153 1 0.000800896 7.4764e-05 0.00113009 -0.000201993 994.86 2.25942e-12 
154 1 0.000824969 7.53391e-05 0.00131496 0.00109186 998.133 1.58287e-12 
155 1 0.000849408 7.48773e-05 -0.00187086 -0.000814976 985.606 2.31784e-12 
156 1 0.000876075 7.42184e-05 0.00250546 -0.000575204 995.163 4.287e-12 
157 1 0.000899415 7.57629e-05 -0.00215873 0.00202161 1000.5 2.27415e-12 
158 1 0.000925473 7.56615e-05 0.00200042 0.000360564 999.984 2.93848e-12 
159 1 0.000949589 7.45918e-05 0.000525951 -0.00120315 1002.43 1.83795e-12 
160 1 0.000975023 7.59199e-05 0.000712054 0.000815405 998.175 1.93587e-12 
161 1 1.26194e-06 0.000100451 0.00181419 -0.000417168 997.893 2.88517e-12 
162 1 2.54353e-05 0.000100355 0.00167094 -0.000125019 1006.71 2.01388e-12 
163 1 4.94581e-05 9.88668e-05 -0.000813623 -0.00184231 1008.82 4.16184e-12 
164 1 7.43853e-05 9.9832e-05 0.00107134 -5.72495e-05 997.678 1.91665e-12 
165 1 9.95225e-05 0.000100054 -0.00088213 0.000302058 997.92 1.31933e-12 
166 1 0.00012477 9.98676e-05 0.000926444 -0.00151889 1003.72 1.56601e-12 
167 1 0.000150545 9.94366e-05 0.00026716 -0.000514572 1004.39 1.78553e-12 
168 1 0.000175814 0.000100655 0.00214824 -0.000271795 1005.85 3.08119e-12 
169 1 0.00020057 0.000100489 0.00289033 0.000599755 1004.73 2.38477e-12 
170 1 0.00022564 0.000100228 0.00171098 0.000254713 998.632 2.11755e-12 
171 1 0.000250013 9.92197e-05 -1.65221e-05 -0.000971691 998.958 2.13532e-12 
172 1 0.000274936 9.9973e-05 -0.000495979 -0.00143989 1000.7 1.11143e-12 
173 1 0.000300202 0.000100291 -0.000244361 -0.000950678 1010.78 1.53841e-12 
174 1 0.000324767 0.000100545 -0.000993843 0.000918654 1011.51 1.9146e-12 
175 1 0.000349813 0.000100767 -0.000549439 -0.000352219 994.896 2.09097e-12 
176 1 0.000375881 0.000100582 0.00242575 0.000461239 997.699 2.33122e-12 
177 1 0.000400314 9.94097e-05 -0.000202437 -0.00170477 1011.84 2.37436e-12 
178 1 0.000425681 9.9997e-05 0.00052978 0.000243351 1012.01 1.81365e-12 
179 1 0.000450213 9.92382e-05 0.000680538 -0.00237862 1004.31 2.15782e-12 
180 1 0.000475321 0.000100536 0.00144391 -5.95262e-06 994.594 1.61472e-12 
181 1 0.000501177 9.97158e-05 0.0011356 -0.00278661 995.874 2.68764e-12 
182 1 0.000525421 0.000100589 0.00100391 0.000774385 1009.33 2.29473e-12 
183 1 0.000548945 9.94538e-05 -0.000537536 -0.00118183 1008.46 3.35922e-12 
184 1 0.000574364 9.98895e-05 5.92072e-05 -0.000724045 997.765 1.70213e-12 
185 1 0.000599216 9.97367e-05 -0.00254361 -0.00154318 1001.06 2.13988e-12 
186 1 0.000623616 0.000100114 -0.00297445 -0.000682995 991.863 4.31413e-12 
187 1 0.000651524 9.95925e-05 0.00143221 -0.00043352 999.938 4.46083e-12 
188 1 0.000674729 0.000101428 -0.000618215 0.00226184 1013.09 4.63211e-12 
189 1 0.000700607 0.000100346 0.00195631 0.000644652 1007.82 3.14726e-12 
190 1 0.000725037 0.000101466 -0.000238887 0.00132447 1009.89 4.17325e-12 
191 1 0.000749802 9.99394e-05 0.00123761 0.00145714 1003.17 1.84394e-12 
192 1 0.000775201 0.000100163 6.92884e-05 0.000369698 995.645 1.73074e-12 
193 1 0.000800302 0.000100354 -0.000346144 -6.14615e-05 1008.06 2.00581e-12 
194 1 0.000824691 0.000100173 -0.00155482 -0.000167516 1011.26 2.08705e-12 
195 1 0.000850369 0.000101225 0.000161332 0.00106474 996.919 3.17491e-12 
196 1 0.000874838 0.000100491 -0.00206495 0.000267555 994.368 2.17636e-12 
197 1 0.000899509 9.96038e-05 -0.00200157 -0.00145597 995.763 2.38052e-12 
198 1 0.000925882 9.95854e-05 -0.000402306 -0.00125887 1001.95 2.14077e-12 
199 1 0.000949689 9.92251e-05 -0.000220678 -0.000924117 1002.76 1.99056e-12 
200 1 0.000975709 9.98541e-05 0.00186259 -0.000618258 997.33 1.73496e-12 
201 1 0.000999175 0.000125025 -0.000514178 -0.000895171 998.496 2.29332e-12 
202 1 2.55214e-05 0.000125505 0.000874861 0.00303366 1005.38 2.15972e-12 
203 1 4.87153e-05 0.000124796 -0.0021493 0.0010617 994.885 3.75561e-12 
204 1 7.48127e-05 0.00012503 -0.000391964 0.000507125 986.39 1.84895e-12 
205 1 0.000100518 0.000125697 0.000909473 0.000690348 1001.55 2.13599e-12 
206 1 0.000125136 0.000124265 -0.000752209 -0.00219931 1001.98 1.36487e-12 
207 1 0.000150026 0.000124045 -0.00172864 -0.00277561 1001.32 2.02498e-12 
208 1 0.000174731 0.000125437 0.000267943 0.0014342 1009.87 2.17627e-12 
209 1 0.000199172 0.000124599 -0.0012299 -0.00085562 1007.47 3.62431e-12 
210 1 0.000224354 0.000124622 -0.00239182 -0.000143573 993.836 3.20514e-12 
211 1 0.000249772 0.000125207 0.000172071 0.00108 988.355 1.72501e-12 
212 1 0.000274784 0.000125249 0.000538407 -0.00079004 994.285 1.52282e-12 
213 1 0.000299555 0.000123857 -0.00101323 -0.000965344 1000.98 2.48135e-12 
214 1 0.000325001 0.000124609 0.000978448 -0.000635028 1009.52 1.24323e-12 
215 1 0.000349801 0.000124769 0.000436442 -0.000142012 1008.19 1.1047e-12 
216 1 0.000374775 0.000124879 0.000287168 -6.58139e-05 997.24 1.14538e-12 
217 1 0.000401182 0.000125005 0.000703865 0.000182778 997.209 2.31452e-12 
218 1 0.000425419 0.000124698 0.00198331 -0.000995442 996.016 1.42068e-12 
219 1 0.000451403 0.000125215 0.00325928 -0.000317193 999.043 2.83772e-12 
220 1 0.000474827 0.000125256 0.000283624 0.000893796 1000.84 1.86914e-12 
221 1 0.000499326 0.000125054 0.00103146 -0.000290711 999.886 2.33925e-12 
222 1 0.000525447 0.000125521 -0.00112929 0.00205999 1010.26 2.93716e-12 
223 1 0.000549544 0.000124548 0.00108759 0.000423059 999.643 2.33055e-12 
224 1 0.000574967 0.000125233 0.000173523 0.00235691 988.679 1.66148e-12 
225 1 0.000601044 0.000125546 0.00270136 -0.000270541 1004.88 3.09369e-12 
226 1 0.000625204 0.000124461 0.00218914 -0.00102747 998.123 2.24528e-12 
227 1 0.000650827 0.000124258 0.00297203 -0.00162418 999.678 3.5357e-12 
228 1 0.000674957 0.000124577 -0.000429063 -0.00205775 1010.08 3.08632e-12 
229 1 0.000699167 0.000124369 -0.00194192 -0.00231196 1010.32 4.52688e-12 
230 1 0.000725077 0.000123573 0.000845496 -0.00112012 1010.95 4.42424e-12 
231 1 0.000749414 0.000124974 -0.00170126 -0.000204014 992.579 2.084e-12 
232 1 0.000775124 0.000124707 0.00149987 -0.00144833 996.563 1.83112e-12 
233 1 0.00079994 0.000124026 0.00104911 -3.77508e-05 1009.72 1.86916e-12 
234 1 0.0008251 0.000124619 0.00135553 -0.00295652 1009.06 1.80631e-12 
235 1 0.000849793 0.000124822 0.00223436 -0.000679675 1007.29 1.78034e-12 
236 1 0.00087492 0.000125036 0.000399468 -0.000715995 1000.27 1.38529e-12 
237 1 0.000901303 0.000125581 0.0021789 0.000795951 998.185 3.16361e-12 
238 1 0.000925449 0.000124737 0.000992034 -0.000661705 999.468 1.1717e-12 
239 1 0.000950329 0.000125588 0.00166166 -0.000259956 997.069 1.53279e-12 
240 1 0.000974324 0.000125033 -0.00235169 0.00103632 995.819 1.80728e-12 
241 1 8.579e-07 0.000149383 0.00184014 -0.00221348 993.444 2.60084e-12 
242 1 2.53379e-05 0.000149823 0.000955085 -0.00211427 997.026 1.76819e-12 
243 1 5.12431e-05 0.000151091 0.00126195 0.00105311 1003.6 3.85109e-12 
244 1 7.60519e-05 0.000150315 0.00217249 -2.24885e-05 1010.17 2.66452e-12 
245 1 9.97868e-05 0.000149924 0.00135077 -0.000349695 1012.32 1.86166e-12 
246 1 0.000124643 0.000149327 0.000799106 5.2658e-05 995.84 1.80934e-12 
247 1 0.000150054 0.000150168 0.000657848 0.000592677 992.246 1.29025e-12 
248 1 0.000174917 0.000149759 0.000950834 -0.000376823 1003.66 1.8836e-12 
249 1 0.000199929 0.000150388 5.52945e-05 0.00218101 1003.73 1.82848e-12 
250 1 0.000224165 0.000151062 -0.000494443 0.00104257 997.05 3.48577e-12 
251 1 0.000249967 0.00014926 0.000188713 -0.00177132 990.108 2.24573e-12 
252 1 0.000275711 0.000150501 -0.000454464 0.00076599 999.773 3.1347e-12 
253 1 0.000300047 0.000150615 -0.000118889 -0.000269071 993.862 2.0063e-12 
254 1 0.000325982 0.000149103 0.00225678 -0.00110392 989.684 3.35343e-12 
255 1 0.000349689 0.000150251 -0.000181509 0.000363431 997.154 1.34441e-12 
256 1 0.000375001 0.000149546 0.00064878 -0.000619169 999.135 1.34259e-12 
257 1 0.000399694 0.000150013 -0.00104923 -0.000802545 1006.55 1.43072e-12 
258 1 0.000424225 0.000150543 -0.000451078 0.00120273 1009.95 2.40211e-12 
259 1 0.00044953 0.000150402 0.000450528 0.00162806 1008.16 2.02455e-12 
260 1 0.00047448 0.000150708 -5.77541e-05 0.0017818 1005.39 2.26452e-12 
261 1 0.000501143 0.000149798 0.00171598 -0.000202734 998.456 2.66876e-12 
262 1 0.000525396 0.000149022 0.00249559 -0.00196689 1000.59 3.05285e-12 
263 1 0.000550661 0.000150943 0.000733886 6.58006e-05 1004.25 3.1093e-12 
264 1 0.000575884 0.000150417 -0.000485865 0.00051215 1011.36 3.13252e-12 
265 1 0.000600225 0.000149496 0.00147608 -0.00166559 1013.34 2.07593e-12 
266 1 0.000624749 0.000149717 0.000479478 0.00089291 997.311 2.13662e-12 
267 1 0.000649427 0.000150077 -0.00200638 -5.6986e-05 991.211 2.67774e-12 
268 1 0.000675202 0.000150868 0.000755202 0.00353822 997.452 2.71312e-12 
269 1 0.000701177 0.000150458 0.00290479 0.00164106 998.055 2.98758e-12 
270 1 0.000723848 0.000150629 -0.00272059 0.00137937 994.976 4.41232e-12 
271 1 0.000750032 0.000149734 0.00124801 -0.000954449 976.869 2.63265e-12 
272 1 0.000776689 0.000150095 -8.96746e-05 -2.14639e-05 994.068 4.48613e-12 
273 1 0.000799657 0.000150011 0.000122687 -0.000332929 999.814 1.46244e-12 
274 1 0.000825393 0.000149657 -0.000573086 0.00147702 989.73 2.29983e-12 
275 1 0.00084953 0.000150673 0.00101269 0.00203006 997.412 1.67077e-12 
276 1 0.000875229 0.000149392 0.00140086 -0.000971429 1002.07 1.59919e-12 
277 1 0.000900022 0.000149539 0.000613441 -0.000911264 1011.06 2.01239e-12 
278 1 0.000924195 0.000150967 -1.69281e-05 0.00155555 1017.21 3.91091e-12 
279 1 0.000949722 0.000150467 -0.0016264 0.00130851 1012.89 2.00492e-12 
280 1 0.000974626 0.000150438 0.000175372 0.000293609 1004.5 1.97413e-12 
281 1 0.000999056 0.000175478 -0.000600629 0.0028732 995.49 3.92635e-12 
282 1 2.55892e-05 0.000174772 0.000230737 -0.000650938 996.8 1.91268e-12 
283 1 5.08737e-05 0.000174358 0.000866093 1.5725e-05 1009.85 2.64856e-12 
284 1 7.5299e-05 0.000175344 -0.000559912 -0.000492137 1015.6 2.11427e-12 
285 1 0.00010048 0.000174658 0.00261182 -0.000362054 1004.87 1.9278e-12 
286 1 0.000125152 0.000174866 0.000882738 0.001259 986.351 1.79072e-12 
287 1 0.000150683 0.000174927 -0.00223345 0.000299346 986.266 2.90298e-12 
288 1 0.000175219 0.000174623 0.000192293 -0.00218452 986.161 2.18368e-12 
289 1 0.000200924 0.000174941 -0.000128922 9.47688e-05 991.867 2.17845e-12 
290 1 0.000225909 0.000174444 0.000761311 -0.000768082 1000.55 2.1982e-12 
291 1 0.000250651 0.000175305 0.000969661 -0.000109639 1002.87 1.83963e-12 
292 1 0.000275587 0.000174809 2.47555e-05 -0.00180995 1013.87 2.31782e-12 
293 1 0.000299649 0.00017508 -0.000323858 0.000791179 1009.66 2.40929e-12 
294 1 0.000324781 0.00017557 -0.000497293 0.00129399 997.62 2.3251e-12 
295 1 0.00035062 0.000175857 -0.000869298 0.00239904 999.983 3.50463e-12 
296 1 0.000375347 0.000174501 -0.000151614 -0.00124802 1004.85 1.63529e-12 
297 1 0.000400056 0.000175244 0.000899784 0.000396359 1007.96 1.31816e-12 
298 1 0.000425132 0.00017401 0.00177149 -0.000146761 1007.42 2.84894e-12 
299 1 0.000449347 0.000174341 -0.00256739 -0.000453555 1004.47 2.67859e-12 
300 1 0.000475703 0.000174226 0.000806591 -0.000301739 1002.76 2.26374e-12 
301 1 0.000499388 0.000175167 -0.00190162 -4.14214e-05 997.423 2.17564e-12 
302 1 0.000524823 0.000175064 -0.000334029 -0.000300896 999.797 1.42937e-12 
303 1 0.000550907 0.000174601 0.000326036 -0.000128118 1008.95 2.65285e-12 
304 1 0.000574589 0.000174838 -0.000656896 -0.000422757 1014.45 2.47356e-12 
305 1 0.000599485 0.00017423 -0.00270606 -0.00201682 1001.73 2.90393e-12 
306 1 0.000624509 0.000175446 -0.000913422 0.00138336 981.89 2.81584e-12 
307 1 0.000651279 0.000174009 0.00191863 -0.00201741 990.527 4.31873e-12 
308 1 0.000674702 0.000174849 -0.000404145 -0.00122185 997.124 2.12513e-12 
309 1 0.000700554 0.000174667 0.000744729 -0.000104796 993.74 2.09542e-12 
310 1 0.000725881 0.000174526 -0.00044708 -0.000866104 994.696 2.48701e-12 
311 1 0.000750819 0.000175726 0.000928704 0.000550557 994.758 2.51192e-12 
312 1 0.000775248 0.000175332 0.00043684 0.000651584 1005.16 1.52048e-12 
313 1 0.000799419 0.000174772 0.000325197 -0.00132626 999.942 2.16474e-12 
314 1 0.000824942 0.000175491 0.000768726 0.00252747 988.434 2.15201e-12 
315 1 0.000851461 0.000175209 0.00133767 7.15937e-05 996.782 2.90493e-12 
316 1 0.000874889 0.000174718 -0.000949836 0.00118451 998.154 1.83433e-12 
317 1 0.000899798 0.000175021 0.000159397 0.00136276 997.92 1.86364e-12 
318 1 0.000925637 0.000173119 0.000463724 -0.00153197 1004.83 7.70542e-12 
319 1 0.00095009 0.000175057 -0.000312712 0.00299368 1008.4 2.08716e-12 
320 1 0.00097559 0.00017424 0.00214603 -0.00126083 1006.09 2.43936e-12 
321 1 3.58805e-07 0.000199791 0.000459538 -0.000571575 1000.09 1.44136e-12 
322 1 2.48927e-05 0.000199751 -0.00166247 0.000589403 1004.27 1.91984e-12 
323 1 4.90225e-05 0.00019989 0.00180766 -0.000832153 999 3.02835e-12 
324 1 7.49978e-05 0.000199159 0.00149477 0.000706258 994.148 3.04576e-12 
325 1 9.93644e-05 0.000200473 -0.00104615 0.0010982 1002.27 2.76059e-12 
326 1 0.000124885 0.000200921 0.00038627 0.00034089 1010.99 3.25133e-12 
327 1 0.000149731 0.000200658 0.000933329 0.00124432 1008.84 2.71348e-12 
328 1 0.000174726 0.0002005 0.000101473 -0.000940634 992.931 2.19628e-12 
329 1 0.000200708 0.0002011 0.00170178 -6.16196e-05 991.183 3.02749e-12 
330 1 0.000225293 0.000200044 -0.000391424 7.19771e-05 998.135 9.36257e-13 
331 1 0.000250514 0.000200216 0.0012773 0.000301839 1004.27 1.27554e-12 
332 1 0.00027443 0.000199538 0.000735661 0.00128166 1001.43 2.4878e-12 
333 1 0.000300549 0.000199426 0.00251597 -0.000770979 995.064 2.38127e-12 
334 1 0.000324649 0.000199292 -0.00117487 -0.00189951 1001.25 3.13716e-12 
335 1 0.000351136 0.000199745 0.00120349 0.000128341 1012.25 3.40088e-12 
336 1 0.000374948 0.000200348 0.000435956 0.00186584 999.928 2.24963e-12 
337 1 0.000400277 0.000198893 0.000766883 -0.00123838 985.365 3.60926e-12 
338 1 0.000425086 0.000200443 -0.00208539 0.000614271 983.15 2.74517e-12 
339 1 0.000450979 0.000199879 0.000788314 -0.0012726 987.889 2.91194e-12 
340 1 0.000474543 0.000199952 -0.00103573 0.00123565 990.616 1.44543e-12 
341 1 0.000500576 0.000199623 0.00088057 -0.000988358 993.526 1.87434e-12 
342 1 0.000525129 0.000200012 0.000351262 -0.0010083 1002.7 1.62656e-12 
343 1 0.0005488 0.000199557 -0.000540544 -0.000777926 997.143 3.23278e-12 
344 1 0.000575161 0.000199384 0.00256928 -0.000210223 991.428 2.06605e-12 
345 1 0.000599917 0.000200307 0.00103932 0.000191938 999.2 1.5338e-12 
346 1 0.000625485 0.000200572 0.00151819 -0.001846 1006.72 3.15601e-12 
347 1 0.000650177 0.000201447 -0.00128014 0.00213878 1010.55 5.86636e-12 
348 1 0.000674505 0.000199787 -0.000546538 -0.00061163 1003.91 2.07796e-12 
349 1 0.000699944 0.000201165 4.80075e-05 0.000710603 997.864 3.77038e-12 
350 1 0.000725462 0.000200501 0.00129817 -0.000312644 1003.12 2.08756e-12 
351 1 0.000750032 0.000200235 -0.000600417 0.00011106 1011.34 1.50644e-12 
352 1 0.000775308 0.000200422 0.00183441 3.55308e-05 1008.19 1.99591e-12 
353 1 0.000799818 0.00020044 -0.00136926 0.000209957 997.757 2.14283e-12 
354 1 0.000825312 0.000199746 0.000590831 0.000389458 1000.12 1.20206e-12 
355 1 0.000850193 0.000199769 -0.00151258 -0.000930165 1006.89 2.09158e-12 
356 1 0.000876331 0.000201034 0.00315057 0.00182839 999.91 3.85386e-12 
357 1 0.000900464 0.000199558 0.00146092 -0.000762008 990.185 2.20463e-12 
358 1 0.000925125 0.000201223 -0.00106054 0.000879402 989.91 3.70141e-12 
359 1 0.000949766 0.000199492 0.00142799 -0.0012061 990.992 2.99026e-12 
360 1 0.000974795 0.000199825 -0.000632186 0.00107086 995.345 1.65338e-12 
361 1 2.88787e-07 0.000225413 0.000276768 -0.000571538 1007.45 1.81519e-12 
362 1 2.54423e-05 0.00022456 0.00133023 -0.00165313 1010.98 1.86257e-12 
363 1 4.94527e-05 0.000224999 -0.00174357 -0.000217137 995.696 2.50787e-12 
364 1 7.50417e-05 0.000225536 -0.000238254 0.00154129 980.341 3.1006e-12 
365 1 0.000101027 0.000224014 0.000873869 -0.00139321 990.695 4.88604e-12 
366 1 0.000125493 0.000224041 -9.74903e-05 -0.000502034 1014.73 3.89091e-12 
367 1 0.000149234 0.000224624 -0.00145848 0.000340512 1021.27 3.53048e-12 
368 1 0.000174132 0.000225019 -0.000693461 0.00195057 1017.91 3.61629e-12 
369 1 0.000199707 0.000224867 0.000684758 -0.00157112 1011.82 2.08185e-12 
370 1 0.000224789 0.00022509 0.00257712 -0.00149126 1004.29 1.72377e-12 
371 1 0.000250373 0.000225239 0.00134448 0.00316049 1008.95 2.35942e-12 
372 1 0.00027491 0.000224823 0.000421923 -0.00107899 996.819 1.90054e-12 
373 1 0.000300558 0.000226227 0.000431754 0.00184003 987.234 4.31247e-12 
374 1 0.000326423 0.000224532 0.00270482 0.000341037 1001.8 3.57643e-12 
375 1 0.00035003 0.000224625 0.00137851 -0.00197981 1011.08 2.83312e-12 
376 1 0.000373548 0.000225768 -0.00256877 0.00258233 999.842 5.27323e-12 
377 1 0.000400379 0.000225766 0.000525417 0.00113872 992.101 2.43979e-12 
378 1 0.000424519 0.000225953 0.00181556 0.000799949 996.784 3.47106e-12 
379 1 0.000450113 0.000224927 0.000654853 -0.000913844 998.088 1.53207e-12 
380 1 0.00047463 0.000224978 -0.000300127 -0.000435367 996.547 1.85818e-12 
381 1 0.000500666 0.000226594 0.00066717 0.00235664 1001.74 5.28538e-12 
382 1 0.000525095 0.000224205 -0.000183978 -0.00061983 1004.5 2.16765e-12 
383 1 0.000550573 0.000225219 0.00196861 0.00102645 995.879 1.78629e-12 
384 1 0.000575635 0.000225637 -0.000126983 0.00158266 991.613 2.34318e-12 
385 1 0.000600801 0.000224487 0.000567379 -0.000747622 1000.35 2.61636e-12 
386 1 0.000624845 0.000223848 -0.00193061 -0.000207908 1016.04 3.98649e-12 
387 1 0.000649441 0.000224165 0.00101015 -0.00181716 1013.38 3.61961e-12 
388 1 0.000674932 0.000224917 0.000179762 -0.00187707 1008.54 1.85518e-12 
389 1 0.000699842 0.000224086 0.000933702 -0.000170286 1008.88 2.54424e-12 
390 1 0.000724131 0.000224926 -0.000382243 -0.00141574 1004.63 2.45461e-12 
391 1 0.000749816 0.000224236 -0.000755371 -0.000300471 1002.6 2.48687e-12 
392 1 0.000774005 0.000225031 -0.000896486 0.00181872 1001.96 4.30005e-12 
393 1 0.000801118 0.000224814 0.0012191 -0.00128668 993.969 2.26567e-12 
394 1 0.000826277 0.000224482 0.00282863 -0.00176103 1008.82 2.617e-12 
395 1 0.000850344 0.000224731 0.000791093 0.000925038 1021.61 3.41846e-12 
396 1 0.000873428 0.000226045 -0.00200447 0.0027842 1016.34 7.46982e-12 
397 1 0.000899676 0.000225698 -0.000152513 0.00011209 1009.96 2.79502e-12 
398 1 0.00092437 0.000225148 -0.00158054 -0.000414402 1004.57 2.40352e-12 
399 1 0.000950435 0.00022498 0.000331501 -0.000196775 996.822 1.92344e-12 
400 1 0.000975452 0.000225222 0.00082329 -0.00143617 994.887 1.9238e-12 
401 1 1.60328e-06 0.00024857 0.00227789 -0.00201022 1000.65 5.72936e-12 
402 1 2.52549e-05 0.000250428 0.000338979 0.000876556 1014.13 2.36059e-12 