ITEM: TIMESTEP
130
ITEM: NUMBER OF ATOMS
1600
ITEM: BOX BOUNDS pp pp pp
0 0.001
0 0.001
-1e-06 1e-06
ITEM: ATOMS id type x y vx vy c_rho_peratom c_e_peratom 
1 1 1.13116e-08 1.14792e-07 -2.67371e-05 0.00166411 999.457 1.66554e-13 
2 1 2.49573e-05 -1.75317e-07 -0.000610036 -0.00188668 1000.77 3.00574e-13 
3 1 5.00761e-05 -3.51964e-08 0.000995831 -0.00178122 1000.86 1.29977e-13 
4 1 7.50071e-05 -3.32131e-08 -0.000258154 -0.00092355 1000.04 8.57471e-14 
5 1 9.99099e-05 -5.41733e-08 -0.000545541 -0.000802291 998.492 1.74939e-13 
6 1 0.000125146 -2.04602e-07 0.00151137 -0.00131853 998.675 4.10584e-13 
7 1 0.000149995 -4.19971e-08 0.000717642 4.44145e-05 1000.31 1.24442e-13 
8 1 0.000174908 3.74467e-08 -0.000779101 0.000433688 1000.2 1.39085e-13 
9 1 0.000200044 1.76074e-08 0.000704646 0.000270626 999.695 6.67893e-14 
10 1 0.000225008 -1.09305e-08 0.000521229 -0.000430373 999.755 7.74964e-14 
11 1 0.000250032 -1.12948e-07 0.000767108 -0.000879845 999.348 1.91108e-13 
12 1 0.000275075 -1.02522e-08 0.000879326 0.000339131 999.712 9.82022e-14 
13 1 0.000299968 3.00928e-08 0.000650658 -1.13876e-05 999.643 1.0813e-13 
14 1 0.000325097 -5.5991e-08 0.00118393 -0.000821592 1000.08 1.17829e-13 
15 1 0.000349961 1.84596e-08 -0.000787491 -0.000286024 1001.05 9.35653e-14 
16 1 0.000374917 -1.31233e-07 -0.000127343 -0.00119246 999.651 1.97889e-13 
17 1 0.000399937 -6.48564e-09 -0.00262702 -0.000595083 997.995 1.83656e-13 
18 1 0.000425012 8.66519e-09 -0.000330416 -1.25941e-05 997.548 1.28482e-13 
19 1 0.000450115 -4.34576e-08 -0.000214929 -0.00117923 998.7 1.88528e-13 
20 1 0.000475026 -2.56799e-08 -0.000185798 -0.000609008 999.669 9.56152e-14 
21 1 0.000500011 1.14792e-07 -2.67346e-05 0.00166411 999.457 1.66554e-13 
22 1 0.000524957 -1.75317e-07 -0.000610017 -0.00188668 1000.77 3.00578e-13 
23 1 0.000550076 -3.51964e-08 0.000995993 -0.00178122 1000.86 1.29946e-13 
24 1 0.000575007 -3.32167e-08 -0.000257525 -0.00092363 1000.04 8.57837e-14 
25 1 0.00059991 -5.42018e-08 -0.000544522 -0.000802888 998.465 1.75609e-13 
26 1 0.000625146 -2.04566e-07 0.00151085 -0.00131745 998.688 4.13773e-13 
27 1 0.000649995 -4.17975e-08 0.000710253 4.81114e-05 1000.7 1.31518e-13 
28 1 0.000674897 6.54674e-08 -0.00117021 0.000943459 1000.27 1.64402e-13 
29 1 0.000699995 6.41214e-08 -0.000293809 0.000840252 999.402 6.70188e-14 
30 1 0.000725059 -2.64792e-08 0.000166103 0.000417365 999.601 1.05541e-13 
31 1 0.000750037 -1.1496e-07 0.000857881 -0.000938092 999.212 2.11245e-13 
32 1 0.000775075 -1.02217e-08 0.000880167 0.000342036 999.638 1.04693e-13 
33 1 0.000799968 3.01196e-08 0.000650735 -1.03772e-05 999.649 1.08922e-13 
34 1 0.000825097 -5.59891e-08 0.00118393 -0.000821505 1000.09 1.1786e-13 
35 1 0.000849961 1.84593e-08 -0.00078745 -0.000286028 1001.05 9.35742e-14 
36 1 0.000874917 -1.31233e-07 -0.000127335 -0.00119246 999.651 1.97892e-13 
37 1 0.000899937 -6.48564e-09 -0.00262702 -0.000595083 997.995 1.83656e-13 
38 1 0.000925012 8.66519e-09 -0.000330416 -1.25941e-05 997.548 1.28482e-13 
39 1 0.000950115 -4.34576e-08 -0.000214929 -0.00117923 998.7 1.88528e-13 
40 1 0.000975026 -2.56799e-08 -0.000185799 -0.000609008 999.669 9.56152e-14 
41 1 3.6167e-08 2.50635e-05 0.0004119 0.00100963 1000.1 1.23332e-13 
42 1 2.50729e-05 2.50106e-05 0.000497513 0.000435259 999.851 1.42803e-13 
43 1 4.99398e-05 2.49512e-05 -0.00198853 -0.000167197 999.283 1.17847e-13 
44 1 7.49515e-05 2.50385e-05 -0.0012257 0.00112951 998.754 1.20899e-13 
45 1 0.00010002 2.50734e-05 -0.000596022 0.00148836 998.646 1.42484e-13 
46 1 0.000124934 2.50774e-05 -0.000582949 0.000387238 998.455 2.09005e-13 
47 1 0.000150056 2.50308e-05 0.000259537 -0.000250156 998.987 1.16167e-13 
48 1 0.000175058 2.50324e-05 0.000430229 0.000426511 1000.12 8.87959e-14 
49 1 0.000199951 2.50758e-05 -0.00149904 0.00140137 1000.43 1.11958e-13 
50 1 0.000225 2.50328e-05 -0.000401679 0.000928415 999.891 1.06326e-13 
51 1 0.00024998 2.51344e-05 -0.000858519 0.00214426 999.774 2.31881e-13 
52 1 0.000275011 2.50283e-05 -0.000104547 -9.2669e-05 1000.27 9.80227e-14 
53 1 0.000300035 2.51026e-05 -3.59891e-05 0.00122772 1000.07 1.41415e-13 
54 1 0.000324995 2.49932e-05 1.81093e-05 -0.0001938 1000.97 8.70472e-14 
55 1 0.000350023 2.50165e-05 5.68319e-05 0.000746939 1001.29 8.02676e-14 
56 1 0.00037497 2.49924e-05 0.000213733 -3.05981e-05 998.945 7.64682e-14 
57 1 0.00040006 2.50862e-05 0.000778997 0.000747069 998.876 1.41858e-13 
58 1 0.000425078 2.5011e-05 0.00143174 0.000632465 999.415 1.42219e-13 
59 1 0.000450048 2.51123e-05 0.00126751 0.00189991 1000.82 2.01497e-13 
60 1 0.0004749 2.50212e-05 -0.00126821 0.000757737 1001.47 1.54077e-13 
61 1 0.000500036 2.50635e-05 0.000411903 0.00100963 1000.1 1.23331e-13 
62 1 0.000525073 2.50106e-05 0.000497545 0.000435264 999.85 1.42792e-13 
63 1 0.00054994 2.49512e-05 -0.0019883 -0.000167137 999.282 1.17934e-13 
64 1 0.000574951 2.50385e-05 -0.0012248 0.00112977 998.74 1.21108e-13 
65 1 0.00060002 2.50735e-05 -0.000594307 0.00148969 998.566 1.41456e-13 
66 1 0.000624934 2.50776e-05 -0.00058465 0.000392393 998.474 2.0726e-13 
67 1 0.000650055 2.50312e-05 0.000245985 -0.000243977 999.254 1.21923e-13 
68 1 0.000674983 2.4997e-05 0.000377136 -0.000321703 1000.05 7.08871e-14 
69 1 0.000700022 2.50711e-05 0.000587485 0.00106755 1000.8 9.87269e-14 
70 1 0.000724921 2.50121e-05 -0.00111685 0.00089927 1000.44 1.68267e-13 
71 1 0.000749955 2.51561e-05 -0.00101033 0.00223985 999.452 3.0185e-13 
72 1 0.000775014 2.50263e-05 -7.82644e-05 -0.000120434 999.97 1.05802e-13 
73 1 0.000800035 2.51026e-05 -3.76602e-05 0.0012285 1000.05 1.42444e-13 
74 1 0.000824995 2.49932e-05 1.78472e-05 -0.000193774 1000.98 8.70473e-14 
75 1 0.000850023 2.50165e-05 5.68468e-05 0.00074695 1001.29 8.02656e-14 
76 1 0.00087497 2.49924e-05 0.000213742 -3.0597e-05 998.945 7.64695e-14 
77 1 0.00090006 2.50862e-05 0.000778997 0.000747069 998.876 1.41858e-13 
78 1 0.000925078 2.5011e-05 0.00143174 0.000632465 999.415 1.42219e-13 
79 1 0.000950048 2.51123e-05 0.00126751 0.00189991 1000.82 2.01497e-13 
80 1 0.0009749 2.50212e-05 -0.00126821 0.000757737 1001.47 1.54077e-13 
81 1 -8.37008e-08 4.99657e-05 -0.00142365 -0.00110975 1000.84 1.19727e-13 
82 1 2.48958e-05 5.00665e-05 -0.000726026 0.000505917 999.88 1.60324e-13 
83 1 4.98648e-05 4.99277e-05 -0.00139848 0.000250021 998.81 2.25855e-13 
84 1 7.50548e-05 5.00602e-05 0.000377867 0.000427647 999.766 1.2614e-13 
85 1 0.000100009 5.00382e-05 0.000710544 -0.000250504 1001.61 9.15474e-14 
86 1 0.000124944 4.98826e-05 -8.17291e-05 -0.00130821 1000.51 1.71996e-13 
87 1 0.000149927 5.00331e-05 -0.00085075 0.000552927 999.853 1.11348e-13 
88 1 0.000175055 5.00327e-05 0.000139634 0.000129253 1001.45 1.07006e-13 
89 1 0.00019998 5.00858e-05 -0.000733281 1.75591e-06 1001.8 1.54138e-13 
90 1 0.000225035 4.98623e-05 0.00099665 -0.00235475 1001.12 2.79458e-13 
91 1 0.00025001 5.01153e-05 0.00147431 0.00016904 1001.84 2.59815e-13 
92 1 0.000274974 4.98294e-05 -0.000263452 -0.00156815 1000.67 2.92853e-13 
93 1 0.000299966 5.00129e-05 -0.000490656 0.00085502 998.993 1.1836e-13 
94 1 0.000325164 4.98957e-05 0.00151965 -0.00061003 1000.45 2.579e-13 
95 1 0.000349954 4.99078e-05 -0.000856498 -0.000631701 1000.88 1.34389e-13 
96 1 0.00037505 5.00555e-05 0.0009968 0.000120958 1000.32 1.02137e-13 
97 1 0.000400029 5.00556e-05 -0.000485947 0.000291982 1001.72 1.02692e-13 
98 1 0.000424826 4.99204e-05 -0.00145678 -0.00043216 1000.49 2.79604e-13 
99 1 0.000450028 4.99599e-05 0.000944647 -0.000952256 1000.26 1.19791e-13 
100 1 0.000474978 4.99312e-05 -3.64337e-06 -0.00120676 1001.48 1.14025e-13 
101 1 0.000499916 4.99657e-05 -0.00142365 -0.00110975 1000.84 1.19727e-13 
102 1 0.000524896 5.00665e-05 -0.000725984 0.000505917 999.88 1.60342e-13 
103 1 0.000549865 4.99277e-05 -0.00139819 0.000250021 998.809 2.26009e-13 
104 1 0.000575055 5.00602e-05 0.000379119 0.000427823 999.735 1.25461e-13 
105 1 0.000600009 5.00383e-05 0.000714333 -0.000248123 1001.51 8.91555e-14 
106 1 0.000624961 4.98873e-05 0.000178937 -0.00125682 1000.51 1.68697e-13 
107 1 0.00064992 5.00676e-05 -0.00125327 0.00124282 999.838 1.49232e-13 
108 1 0.000675062 5.00458e-05 -0.00032674 0.00032387 1000.93 1.1029e-13 
109 1 0.000700023 5.00304e-05 -0.000809709 -0.000549344 1001.92 1.24967e-13 
110 1 0.000725044 4.98796e-05 0.00110675 -0.00247042 1001.66 2.77712e-13 
111 1 0.000750005 5.01213e-05 0.00137036 0.000142538 1001.84 2.78456e-13 
112 1 0.000774974 4.98294e-05 -0.000269091 -0.00156703 1000.58 2.99406e-13 
113 1 0.000799966 5.00129e-05 -0.000492032 0.000854763 998.979 1.18642e-13 
114 1 0.000825164 4.98957e-05 0.00151937 -0.000610083 1000.45 2.57993e-13 
115 1 0.000849954 4.99078e-05 -0.000856504 -0.000631688 1000.88 1.34389e-13 
116 1 0.00087505 5.00555e-05 0.000996803 0.00012096 1000.32 1.02137e-13 
117 1 0.000900029 5.00556e-05 -0.000485947 0.000291982 1001.72 1.02692e-13 
118 1 0.000924826 4.99204e-05 -0.00145678 -0.00043216 1000.49 2.79604e-13 
119 1 0.000950028 4.99599e-05 0.000944647 -0.000952256 1000.26 1.19791e-13 
120 1 0.000974978 4.99312e-05 -3.64383e-06 -0.00120676 1001.48 1.14025e-13 
121 1 -9.92692e-08 7.49954e-05 -0.000338158 0.000297872 999.465 1.38161e-13 
122 1 2.50215e-05 7.49282e-05 0.000871886 -0.000230075 998.964 1.40232e-13 
123 1 5.01422e-05 7.49921e-05 0.00127637 -0.000508491 998.868 2.36739e-13 
124 1 7.51194e-05 7.49994e-05 0.00270321 0.000402531 1000.42 1.98168e-13 
125 1 9.99901e-05 7.49804e-05 -0.000330529 -0.000243908 1001.13 8.10862e-14 
126 1 0.00012502 7.50192e-05 0.00076504 0.000456042 999.254 9.00468e-14 
127 1 0.000150011 7.5036e-05 0.00050743 -0.000276093 999.296 1.08662e-13 
128 1 0.000174962 7.48683e-05 0.000564618 -0.000968421 1000.65 2.26144e-13 
129 1 0.000199919 7.49583e-05 -0.000156986 0.000145178 1000.37 1.32098e-13 
130 1 0.00022494 7.496e-05 -0.00150111 0.000257192 999.882 1.58544e-13 
131 1 0.000250069 7.48982e-05 -5.93313e-05 -0.00101956 1000.13 2.10924e-13 
132 1 0.000274909 7.50673e-05 -0.00203536 0.000927652 999.116 2.07947e-13 
133 1 0.000300027 7.50605e-05 0.000920466 0.00027752 998.077 1.16837e-13 
134 1 0.000324968 7.49693e-05 -2.25905e-05 5.04799e-05 998.585 1.02122e-13 
135 1 0.000349906 7.49801e-05 -0.000426568 -0.000238789 998.289 1.46457e-13 
136 1 0.000375018 7.49227e-05 0.000502624 -0.00108286 999.203 1.0841e-13 
137 1 0.000399967 7.49974e-05 -0.00117472 0.00103992 1001.29 8.78559e-14 
138 1 0.000424922 7.50531e-05 -0.000477984 0.00146573 999.551 1.04058e-13 
139 1 0.000450025 7.49766e-05 -0.000277339 8.80651e-05 998.433 7.87673e-14 
140 1 0.000474997 7.50414e-05 -0.000439379 0.000559137 999.651 7.45589e-14 
141 1 0.000499901 7.49954e-05 -0.000338155 0.000297871 999.465 1.38162e-13 
142 1 0.000525022 7.49282e-05 0.000871913 -0.000230081 998.964 1.40234e-13 
143 1 0.000550142 7.49921e-05 0.00127657 -0.000508552 998.867 2.36678e-13 
144 1 0.000575119 7.49994e-05 0.00270406 0.000402343 1000.41 1.9757e-13 
145 1 0.00059999 7.49804e-05 -0.000327643 -0.000243145 1001.09 8.03588e-14 
146 1 0.000625021 7.50196e-05 0.000771393 0.00046339 999.292 8.97818e-14 
147 1 0.000650023 7.50357e-05 0.000685479 -0.000310872 999.326 1.11334e-13 
148 1 0.000674986 7.48793e-05 0.00101694 -0.000828951 1000.53 2.11644e-13 
149 1 0.000699892 7.49532e-05 -0.000446649 1.64016e-05 999.804 1.7389e-13 
150 1 0.000724922 7.49172e-05 -0.00159236 -0.000343552 999.415 2.04794e-13 
151 1 0.000750069 7.48985e-05 -5.33081e-05 -0.00101627 1000.21 2.2849e-13 
152 1 0.000774909 7.50673e-05 -0.00203468 0.000927774 999.133 2.10191e-13 
153 1 0.000800027 7.50605e-05 0.000920144 0.000277771 998.075 1.16851e-13 
154 1 0.000824968 7.49693e-05 -2.28067e-05 5.05903e-05 998.584 1.02098e-13 
155 1 0.000849906 7.49801e-05 -0.000426595 -0.000238777 998.289 1.46455e-13 
156 1 0.000875018 7.49227e-05 0.000502621 -0.00108286 999.202 1.08412e-13 
157 1 0.000899967 7.49974e-05 -0.00117472 0.00103992 1001.29 8.78558e-14 
158 1 0.000924922 7.50531e-05 -0.000477984 0.00146573 999.551 1.04058e-13 
159 1 0.000950025 7.49766e-05 -0.000277339 8.80651e-05 998.433 7.87673e-14 
160 1 0.000974997 7.50414e-05 -0.000439379 0.000559137 999.651 7.45588e-14 
161 1 1.02256e-07 9.99703e-05 0.00120624 0.000392315 999.137 1.88383e-13 
162 1 2.50786e-05 0.000100063 7.84407e-05 0.00140424 1000.01 1.70215e-13 
163 1 4.9849e-05 0.00010004 -0.00184831 0.000382867 1000.62 2.84902e-13 
164 1 7.49709e-05 9.99628e-05 -0.000364593 -0.000285436 999.561 1.11116e-13 
165 1 9.99462e-05 0.00010001 -0.000545371 2.43598e-05 999.548 8.95562e-14 
166 1 0.000124879 0.00010008 -0.00149991 2.56173e-05 998.951 2.15562e-13 
167 1 0.000150109 9.99061e-05 0.000731517 -0.000564393 999.604 2.18221e-13 
168 1 0.00017505 0.000100193 0.000744354 0.00239135 1000.5 3.46341e-13 
169 1 0.000200002 0.000100019 -0.000322431 8.13443e-05 1000.59 1.02148e-13 
170 1 0.000224953 0.000100001 -0.000277186 0.000385721 1000.28 8.71889e-14 
171 1 0.000249838 9.99499e-05 -0.00147207 -0.000610344 999.219 2.15667e-13 
172 1 0.000275076 9.99825e-05 0.000207972 -3.14792e-05 998.929 1.52161e-13 
173 1 0.000300023 0.00010004 5.39028e-05 -0.000161657 1000.3 8.90704e-14 
174 1 0.000325079 0.000100122 0.000563275 0.00196951 1000.88 1.88667e-13 
175 1 0.000350022 0.000100073 -0.000184704 0.00111958 999.023 1.11865e-13 
176 1 0.000375096 0.000100033 0.00135399 0.000125639 998.06 1.46146e-13 
177 1 0.000400037 9.99987e-05 0.00132031 -0.000557256 999.665 8.03225e-14 
178 1 0.000425051 0.000100026 0.00102275 0.000119478 1000.25 9.24661e-14 
179 1 0.000449994 9.99647e-05 -0.000509962 -0.000213147 999.794 7.55519e-14 
180 1 0.00047506 0.000100088 2.86207e-05 0.000910383 999.927 1.37968e-13 
181 1 0.000500102 9.99703e-05 0.00120624 0.000392315 999.137 1.88382e-13 
182 1 0.000525079 0.000100063 7.84508e-05 0.00140423 1000.01 1.70215e-13 
183 1 0.000549849 0.00010004 -0.00184823 0.000382838 1000.62 2.84962e-13 
184 1 0.000574971 9.99628e-05 -0.000364276 -0.000285602 999.56 1.11097e-13 
185 1 0.000599946 0.00010001 -0.000544391 2.38811e-05 999.535 8.97013e-14 
186 1 0.000624879 0.00010008 -0.00149745 2.64824e-05 998.89 2.17286e-13 
187 1 0.000650109 9.99071e-05 0.000736488 -0.000552285 999.416 2.22981e-13 
188 1 0.000675063 0.000100206 0.000718439 0.00232137 1000.38 3.6432e-13 
189 1 0.000699988 9.99753e-05 0.00011898 -0.000351211 1000.01 1.28341e-13 
190 1 0.000725083 0.000100114 0.00103823 0.00150384 1000.27 3.53223e-13 
191 1 0.000749838 9.99444e-05 -0.0014672 -0.000683247 999.64 2.5636e-13 
192 1 0.000775076 9.99826e-05 0.000206026 -2.6724e-05 998.798 1.59908e-13 
193 1 0.000800023 0.00010004 5.27993e-05 -0.000160239 1000.25 8.87935e-14 
194 1 0.000825079 0.000100122 0.000562645 0.00196985 1000.88 1.88603e-13 
195 1 0.000850022 0.000100073 -0.00018479 0.00111959 999.022 1.11863e-13 
196 1 0.000875096 0.000100033 0.00135399 0.00012564 998.06 1.4615e-13 
197 1 0.000900037 9.99987e-05 0.0013203 -0.000557256 999.665 8.03229e-14 
198 1 0.000925051 0.000100026 0.00102275 0.000119478 1000.25 9.2466e-14 
199 1 0.000949994 9.99647e-05 -0.000509962 -0.000213147 999.794 7.55519e-14 
200 1 0.00097506 0.000100088 2.86205e-05 0.000910383 999.927 1.37968e-13 
201 1 -1.6363e-07 0.000125009 -0.0020806 0.000808168 998.823 3.05923e-13 
202 1 2.51077e-05 0.000125004 0.000900378 -0.000520535 999.377 1.6459e-13 
203 1 4.99841e-05 0.00012492 -0.000626452 -0.000935113 1000.52 1.63726e-13 
204 1 7.49621e-05 0.000125044 -0.0007678 0.000305876 999.677 1.07027e-13 
205 1 0.000100071 0.000125127 0.00107823 0.00159326 1000.7 2.24792e-13 
206 1 0.000125084 0.000124976 0.000681349 4.81187e-05 1000.91 1.26732e-13 
207 1 0.00015006 0.000124986 0.00132445 -0.000480045 1000.62 1.20184e-13 
208 1 0.000174967 0.000124944 0.000524932 -0.000151356 1000.76 1.63592e-13 
209 1 0.000200058 0.000124981 0.000429063 -0.00142317 999.982 1.39495e-13 
210 1 0.000225077 0.000124878 0.000373531 -0.00115711 999.489 2.00587e-13 
211 1 0.000250013 0.000125044 -0.000166535 -0.000408314 999.197 1.29515e-13 
212 1 0.000274913 0.000125055 -9.99914e-05 0.000338236 999.739 1.58662e-13 
213 1 0.00029998 0.000124869 -0.000183255 -0.00130396 1001.03 1.88404e-13 
214 1 0.000324982 0.000124986 1.07901e-05 -0.000889126 1002.45 1.06853e-13 
215 1 0.000349864 0.000125066 -0.00108528 -0.000313663 1001.46 1.66234e-13 
216 1 0.000374912 0.00012497 -0.00185831 0.000141643 998.787 1.4263e-13 
217 1 0.000400137 0.000125078 0.00172607 0.000800062 999.391 2.1439e-13 
218 1 0.000425098 0.000124952 0.000657885 -0.00038604 1000.55 1.67248e-13 
219 1 0.000450047 0.000125059 3.90886e-05 0.000461635 1000.99 8.59333e-14 
220 1 0.000474984 0.000125014 0.00114497 -4.16323e-05 1000.96 1.0978e-13 
221 1 0.000499836 0.000125009 -0.0020806 0.000808168 998.823 3.05924e-13 
222 1 0.000525108 0.000125004 0.000900387 -0.000520535 999.376 1.64586e-13 
223 1 0.000549984 0.00012492 -0.000626408 -0.000935106 1000.52 1.63727e-13 
224 1 0.000574962 0.000125044 -0.000767765 0.000305798 999.673 1.07058e-13 
225 1 0.000600071 0.000125127 0.00107816 0.00159239 1000.69 2.25414e-13 
226 1 0.000625084 0.000124976 0.00067902 4.59416e-05 1001.05 1.28055e-13 
227 1 0.00065006 0.000124987 0.00131725 -0.000474695 1001.23 1.20912e-13 
228 1 0.00067496 0.000125043 -0.000750237 5.67767e-05 1001.41 1.17223e-13 
229 1 0.000699973 0.000124989 -0.000534226 0.000565276 1000.48 1.05268e-13 
230 1 0.00072499 0.0001248 -0.000607137 -0.00225913 1000.42 3.7471e-13 
231 1 0.000749938 0.000125052 -0.000495324 6.70037e-05 999.405 1.72231e-13 
232 1 0.000774918 0.000125058 -8.62561e-06 0.000400157 999.252 1.54755e-13 
233 1 0.00079998 0.000124869 -0.000186291 -0.00130278 1000.94 1.88855e-13 
234 1 0.000824982 0.000124986 9.89661e-06 -0.000889059 1002.46 1.06952e-13 
235 1 0.000849864 0.000125066 -0.0010854 -0.000313672 1001.46 1.66196e-13 
236 1 0.000874912 0.00012497 -0.00185831 0.000141643 998.787 1.4263e-13 
237 1 0.000900137 0.000125078 0.00172607 0.000800062 999.391 2.14391e-13 
238 1 0.000925098 0.000124952 0.000657885 -0.00038604 1000.55 1.67248e-13 
239 1 0.000950047 0.000125059 3.90885e-05 0.000461635 1000.99 8.59333e-14 
240 1 0.000974984 0.000125014 0.00114497 -4.16323e-05 1000.96 1.0978e-13 
241 1 -9.17816e-09 0.000150043 0.000689089 3.78593e-05 999.399 1.00519e-13 
242 1 2.50192e-05 0.000150004 -0.000170066 -0.00104824 999.21 9.1528e-14 
243 1 5.00552e-05 0.000150113 0.00131794 0.00151322 1000 1.65867e-13 
244 1 7.50512e-05 0.000149959 0.00119853 -0.000602257 1000.48 1.05756e-13 
245 1 9.9981e-05 0.000149908 0.000127878 -0.00119145 1000.73 1.35953e-13 
246 1 0.000124988 0.000149883 -0.000828442 -0.00173249 1000.08 1.58227e-13 
247 1 0.000149954 0.000149984 -0.000795577 6.50744e-05 1000.24 9.80818e-14 
248 1 0.000175029 0.000150129 -0.00040674 0.000803114 1000.88 2.06338e-13 
249 1 0.000199875 0.000150014 -0.00116504 0.00131935 999.558 2.00308e-13 
250 1 0.000224948 0.000150076 -0.000251753 0.000736347 998.562 1.40696e-13 
251 1 0.000250085 0.00015 0.000839966 0.000146331 999.13 1.02344e-13 
252 1 0.000275128 0.000150018 0.00207606 0.000875704 1000.92 1.6892e-13 
253 1 0.000299942 0.000150079 -0.000515518 0.000984462 1001.1 1.46496e-13 
254 1 0.000324963 0.000149893 0.000141384 -0.00158385 1000.52 1.45365e-13 
255 1 0.000349886 0.000150059 -0.00086901 0.000494215 1000.62 1.89261e-13 
256 1 0.000374939 0.000149905 -0.000740082 -0.00137584 1000.08 1.50039e-13 
257 1 0.000399981 0.000149988 -0.00154728 -0.00093081 1001.11 1.34233e-13 
258 1 0.000424889 0.000150059 -0.00152799 0.000172874 1001.23 1.87152e-13 
259 1 0.000450023 0.000149994 -0.000606778 7.05499e-05 1001.05 8.81594e-14 
260 1 0.000474926 0.000150074 -0.000728977 0.0011539 1001.14 1.38215e-13 
261 1 0.000499991 0.000150043 0.000689089 3.78592e-05 999.399 1.00519e-13 
262 1 0.000525019 0.000150004 -0.000170054 -0.00104824 999.21 9.15289e-14 
263 1 0.000550055 0.000150113 0.00131799 0.00151322 1000 1.65861e-13 
264 1 0.000575051 0.000149959 0.00119855 -0.000602282 1000.47 1.05769e-13 
265 1 0.000599981 0.000149908 0.000127485 -0.00119216 1000.71 1.36083e-13 
266 1 0.000624994 0.000149881 -0.000784845 -0.00177737 1000.2 1.56863e-13 
267 1 0.000649942 0.000149973 -0.00063704 -0.00021404 1000.63 8.39562e-14 
268 1 0.000675003 0.00015003 -0.000264831 7.31355e-05 1000.89 5.79363e-14 
269 1 0.000700049 0.000150019 0.000147619 0.000524331 999.727 9.81539e-14 
270 1 0.00072497 0.00015009 0.000142025 0.000477181 999.39 1.67922e-13 
271 1 0.000750093 0.000149999 0.000826736 0.000131794 999.286 1.27724e-13 
272 1 0.000775128 0.000150018 0.0020697 0.000875188 1000.74 1.74148e-13 
273 1 0.000799942 0.000150079 -0.000516737 0.000983963 1001.1 1.46129e-13 
274 1 0.000824963 0.000149893 0.000140794 -0.00158406 1000.53 1.45266e-13 
275 1 0.000849886 0.000150059 -0.00086905 0.0004942 1000.62 1.89259e-13 
276 1 0.000874939 0.000149905 -0.000740081 -0.00137584 1000.08 1.50039e-13 
277 1 0.000899981 0.000149988 -0.00154728 -0.00093081 1001.11 1.34232e-13 
278 1 0.000924889 0.000150059 -0.00152799 0.000172874 1001.23 1.87152e-13 
279 1 0.000950023 0.000149994 -0.000606778 7.05499e-05 1001.05 8.81594e-14 
280 1 0.000974926 0.000150074 -0.000728978 0.0011539 1001.14 1.38215e-13 
281 1 1.43372e-07 0.000174989 0.000383812 0.000233027 999.747 1.48932e-13 
282 1 2.49921e-05 0.000175054 0.000136535 0.000285058 1001.97 1.09936e-13 
283 1 5.00423e-05 0.000174968 0.00121399 -0.00119171 1001.98 1.09116e-13 
284 1 7.50126e-05 0.000175081 -0.000719118 0.0014219 1001.24 1.39073e-13 
285 1 9.99301e-05 0.000175077 0.000194796 0.00103387 1000.37 1.93958e-13 
286 1 0.000124937 0.000174984 -0.000822596 0.000209069 998.746 1.00951e-13 
287 1 0.00015004 0.00017496 0.000674148 -0.000400894 999.574 1.08838e-13 
288 1 0.000174952 0.000174967 -0.000944508 5.4488e-05 1000.55 9.34389e-14 
289 1 0.000199996 0.000174962 -7.10253e-05 -0.000183213 999.396 9.53473e-14 
290 1 0.000225033 0.000174914 0.000260401 -0.000843624 998.95 1.26329e-13 
291 1 0.000249988 0.000175009 0.000770363 -8.14603e-05 999.166 8.30645e-14 
292 1 0.000275123 0.000175023 0.00110898 0.000796302 1000.4 1.13547e-13 
293 1 0.000299969 0.000174954 -0.00110995 -0.000134628 1000.2 1.07165e-13 
294 1 0.000325015 0.000174986 8.42304e-05 0.000137217 997.964 9.31393e-14 
295 1 0.000350202 0.000174966 0.0018167 0.000160326 998.241 3.05265e-13 
296 1 0.000375096 0.00017493 0.000857352 -0.000476002 999.54 2.10884e-13 
297 1 0.000399981 0.000174957 5.00432e-05 -7.53396e-05 1000.75 1.09488e-13 
298 1 0.000424961 0.000174914 0.000427975 -0.000365927 999.903 1.24509e-13 
299 1 0.000449936 0.000174932 0.000221069 -0.00104747 998.855 1.35508e-13 
300 1 0.00047505 0.000174899 0.00058499 -0.00144564 998.711 1.55348e-13 
301 1 0.000500143 0.000174989 0.000383812 0.000233027 999.747 1.48932e-13 
302 1 0.000524992 0.000175054 0.000136542 0.000285055 1001.97 1.09937e-13 
303 1 0.000550042 0.000174968 0.00121404 -0.00119173 1001.98 1.09111e-13 
304 1 0.000575013 0.000175081 -0.000719064 0.00142184 1001.24 1.39114e-13 
305 1 0.00059993 0.000175077 0.000194875 0.00103386 1000.33 1.94475e-13 
306 1 0.000624937 0.000174984 -0.000821372 0.000207058 998.688 1.02523e-13 
307 1 0.000650054 0.00017496 0.00093266 -0.000334248 999.602 1.04318e-13 
308 1 0.000674948 0.000174971 -0.000885925 0.000174332 1000.11 7.08163e-14 
309 1 0.000699968 0.000174963 -0.000329742 -8.14598e-05 998.729 8.85934e-14 
310 1 0.000725055 0.000174855 0.000856872 -0.000999797 998.497 2.23877e-13 
311 1 0.000749988 0.000175009 0.000771638 -7.74742e-05 998.882 9.7042e-14 
312 1 0.000775123 0.000175023 0.00110874 0.000795746 1000.41 1.1488e-13 
313 1 0.000799969 0.000174954 -0.00111046 -0.000135657 1000.22 1.067e-13 
314 1 0.000825015 0.000174986 8.42229e-05 0.000137027 997.964 9.30936e-14 
315 1 0.000850202 0.000174966 0.00181672 0.000160313 998.241 3.05251e-13 
316 1 0.000875096 0.00017493 0.000857353 -0.000476004 999.54 2.10883e-13 
317 1 0.000899981 0.000174957 5.0043e-05 -7.53399e-05 1000.75 1.09488e-13 
318 1 0.000924961 0.000174914 0.000427975 -0.000365927 999.903 1.24509e-13 
319 1 0.000949936 0.000174932 0.000221069 -0.00104747 998.855 1.35508e-13 
320 1 0.00097505 0.000174899 0.00058499 -0.00144564 998.711 1.55348e-13 
321 1 7.93731e-08 0.000200044 0.00147952 -0.000207005 999.366 1.04935e-13 
322 1 2.51453e-05 0.000199959 0.00166936 8.17342e-05 1002.02 1.999e-13 
323 1 4.98689e-05 0.00019994 -0.00145889 -0.000633506 1001.48 2.4508e-13 
324 1 7.50014e-05 0.000199946 2.47332e-05 -0.000963125 1000.52 9.02777e-14 
325 1 0.000100065 0.00019992 -0.000101391 -0.00136285 1001.16 1.52832e-13 
326 1 0.000125023 0.000200064 0.000662348 0.000518814 1000.98 1.47859e-13 
327 1 0.000150059 0.000199999 0.000212338 0.000564766 1000.87 1.0163e-13 
328 1 0.000174997 0.000200027 -0.00024659 0.000456911 1000.19 7.25754e-14 
329 1 0.000200029 0.000200133 0.00129808 0.000906137 998.895 1.77801e-13 
330 1 0.000225027 0.000199987 0.000938678 0.000349469 998.991 9.52731e-14 
331 1 0.000249998 0.00019998 -0.000250805 0.00020798 999.159 6.28343e-14 
332 1 0.000274995 0.000200061 -0.000174357 0.000137211 999.594 6.30319e-14 
333 1 0.000300026 0.000200043 1.95927e-05 0.000620773 999.863 5.97771e-14 
334 1 0.000325008 0.000200053 -0.00011274 0.000929211 999.695 1.1549e-13 
335 1 0.000350042 0.000200066 0.000990761 0.000576082 1001.03 1.74593e-13 
336 1 0.000375029 0.000200228 0.000412575 0.00190966 1000.64 4.58988e-13 
337 1 0.000400016 0.000199888 0.000286653 -0.000734005 999.367 2.0166e-13 
338 1 0.000425025 0.000200097 0.000713784 0.000397456 999.189 1.5881e-13 
339 1 0.000450018 0.00020012 0.000609171 0.00124419 999.344 1.90827e-13 
340 1 0.00047498 0.000200001 -0.000926129 -0.000324358 998.698 1.07073e-13 
341 1 0.000500079 0.000200044 0.00147952 -0.000207006 999.366 1.04935e-13 
342 1 0.000525145 0.000199959 0.00166936 8.17325e-05 1002.02 1.99899e-13 
343 1 0.000549869 0.00019994 -0.00145888 -0.00063353 1001.48 2.45074e-13 
344 1 0.000575001 0.000199946 2.46784e-05 -0.000963261 1000.52 9.02347e-14 
345 1 0.000600065 0.00019992 -0.000101905 -0.00136326 1001.15 1.52669e-13 
346 1 0.000625023 0.000200064 0.000661525 0.000516503 1000.98 1.48363e-13 
347 1 0.000650059 0.000199999 0.000210321 0.000553855 1000.94 1.00758e-13 
348 1 0.000674956 0.000199981 -0.00060445 -0.000141859 1000.07 7.33004e-14 
349 1 0.00069997 0.000200128 0.00105243 0.000798867 998.529 1.65545e-13 
350 1 0.000724985 0.000200072 -0.000137062 0.000295365 998.263 1.01203e-13 
351 1 0.000749999 0.000199985 -0.000228704 0.000283982 998.661 6.89623e-14 
352 1 0.000774995 0.000200061 -0.000173618 0.000137559 999.596 6.21737e-14 
353 1 0.000800026 0.000200043 2.01663e-05 0.000619144 999.899 5.96142e-14 
354 1 0.000825008 0.000200053 -0.000112472 0.000929013 999.698 1.1553e-13 
355 1 0.000850042 0.000200066 0.0009908 0.00057608 1001.03 1.74585e-13 
356 1 0.000875029 0.000200228 0.000412577 0.00190966 1000.64 4.58989e-13 
357 1 0.000900016 0.000199888 0.000286653 -0.000734005 999.368 2.0166e-13 
358 1 0.000925025 0.000200097 0.000713784 0.000397456 999.189 1.5881e-13 
359 1 0.000950018 0.00020012 0.000609171 0.00124419 999.344 1.90827e-13 
360 1 0.00097498 0.000200001 -0.000926129 -0.000324358 998.698 1.07073e-13 
361 1 4.2852e-08 0.000225038 0.000149816 0.000901111 999.875 9.25556e-14 
362 1 2.4926e-05 0.000224995 -0.000621635 -0.000277513 1000.64 1.38599e-13 
363 1 5.00758e-05 0.000224915 8.66448e-05 -0.000788999 999.49 1.6539e-13 
364 1 7.50586e-05 0.000225013 0.000183104 -0.000258643 998.325 1.36015e-13 
365 1 0.000100036 0.000224944 0.000599247 -0.00065421 998.481 1.10438e-13 
366 1 0.000125032 0.000224836 0.000803051 -0.00196108 999.915 2.05131e-13 
367 1 0.000149974 0.000224975 -0.00141147 -0.000829018 1000.92 1.27425e-13 
368 1 0.000174887 0.000225018 -0.0014237 9.30462e-05 1001.23 1.61863e-13 
369 1 0.000199964 0.000224975 -0.0003561 -0.00154794 1001.05 1.24587e-13 
370 1 0.000224918 0.000225101 -0.00113559 0.00126383 1000.58 2.12606e-13 
371 1 0.000250007 0.000224988 -0.00048865 -0.000552804 1000.41 8.83015e-14 
372 1 0.000275006 0.000225053 -2.01051e-05 0.000561525 1000.95 6.95556e-14 
373 1 0.000300034 0.000225017 0.000968257 -2.35917e-05 1001.03 6.81076e-14 
374 1 0.000325075 0.000224933 0.000812062 -0.0010779 1001.75 1.46268e-13 
375 1 0.000349979 0.000224888 0.000656096 -0.000753822 1003.26 2.21736e-13 
376 1 0.000374792 0.000224994 -0.00264581 -6.35875e-05 1001.51 4.2273e-13 
377 1 0.000399998 0.000225016 -0.000136904 0.000927422 999.252 1.53574e-13 
378 1 0.000424882 0.000225028 -0.0017192 0.00110654 999.84 2.24655e-13 
379 1 0.000450062 0.000224865 0.00072018 -0.000851649 1000.57 2.19609e-13 
380 1 0.000474944 0.000224941 -0.000808673 -0.00065264 999.855 1.1644e-13 
381 1 0.000500043 0.000225038 0.000149815 0.000901111 999.875 9.25557e-14 
382 1 0.000524926 0.000224995 -0.000621642 -0.000277515 1000.64 1.38599e-13 
383 1 0.000550076 0.000224915 8.65861e-05 -0.000789025 999.49 1.65403e-13 
384 1 0.000575059 0.000225013 0.000182639 -0.000258851 998.329 1.35983e-13 
385 1 0.000600036 0.000224944 0.000596649 -0.0006553 998.52 1.09469e-13 
386 1 0.000625032 0.000224835 0.000796977 -0.00196475 1000.07 2.00561e-13 
387 1 0.000649973 0.000224975 -0.00142333 -0.000835029 1001.09 1.08285e-13 
388 1 0.000674939 0.00022505 -0.000627586 0.000274517 1000.74 8.91964e-14 
389 1 0.000700043 0.000224982 0.000345401 -0.000612054 1001.08 9.29014e-14 
390 1 0.000724941 0.00022511 -0.0016138 0.00129642 1001.34 2.05822e-13 
391 1 0.000750023 0.000225006 -0.000317533 -4.03776e-05 1000.83 7.93266e-14 
392 1 0.000775004 0.000225043 2.74984e-05 0.000435929 1001.17 6.55405e-14 
393 1 0.000800034 0.000225017 0.000970485 -2.52865e-05 1001.06 6.758e-14 
394 1 0.000825075 0.000224933 0.000812407 -0.00107819 1001.75 1.45956e-13 
395 1 0.000849979 0.000224888 0.000656102 -0.000753816 1003.26 2.21735e-13 
396 1 0.000874792 0.000224994 -0.00264581 -6.35873e-05 1001.51 4.22727e-13 
397 1 0.000899998 0.000225016 -0.000136904 0.000927422 999.252 1.53574e-13 
398 1 0.000924882 0.000225028 -0.0017192 0.00110654 999.84 2.24655e-13 
399 1 0.000950062 0.000224865 0.00072018 -0.000851649 1000.57 2.19609e-13 
400 1 0.000974944 0.000224941 -0.000808673 -0.00065264 999.855 1.1644e-13 