ITEM: TIMESTEP
30
ITEM: NUMBER OF ATOMS
1600
ITEM: BOX BOUNDS pp pp pp
0 0.001
0 0.001
-1e-06 1e-06
ITEM: ATOMS id type x y vx vy c_rho_peratom c_e_peratom 
1 1 -3.90475e-09 9.75131e-09 -2.28205e-05 0.000128465 1000.04 7.77771e-15 
2 1 2.49943e-05 -1.28962e-08 -0.00035346 -0.000851529 1000.04 1.39434e-14 
3 1 5.00172e-05 5.05074e-09 0.000491983 0.000121195 1000.23 1.28378e-14 
4 1 7.50045e-05 3.67103e-09 9.11682e-05 5.99744e-05 1000.17 5.8326e-15 
5 1 9.99906e-05 7.76143e-11 -0.000419201 -4.85954e-05 999.953 8.52835e-15 
6 1 0.000125014 -1.70814e-08 0.000743841 -0.00142055 1000.02 1.56853e-14 
7 1 0.000149987 -3.32345e-09 -0.000915268 -0.000243825 1000.06 1.2464e-14 
8 1 0.000174997 7.54859e-09 -6.08569e-05 0.000238382 1000.01 4.99699e-15 
9 1 0.000200002 5.43675e-09 0.000252343 0.000174113 999.985 3.75911e-15 
10 1 0.000224997 -2.64063e-09 -0.000397121 -0.000123377 999.973 5.92515e-15 
11 1 0.000250004 -1.071e-08 6.30138e-05 -0.000937007 999.951 7.66042e-15 
12 1 0.000275003 1.57848e-09 -6.65776e-05 0.000165223 1000.07 4.16819e-15 
13 1 0.000299997 7.02717e-09 -0.000560183 0.000279774 1000.12 6.46327e-15 
14 1 0.000325008 1.12484e-09 0.000616159 0.000300805 1000.04 5.80794e-15 
15 1 0.000349998 -3.45979e-10 2.09865e-05 6.20893e-05 1000.05 5.28378e-15 
16 1 0.000374996 -1.05611e-08 -0.000357835 -0.000864154 999.885 9.47546e-15 
17 1 0.0004 6.61573e-09 0.000249169 0.000280101 999.753 6.9783e-15 
18 1 0.000425007 3.32584e-09 0.0003755 0.000198931 999.833 6.73347e-15 
19 1 0.000450013 4.76236e-09 0.000855585 0.000284381 999.942 9.4803e-15 
20 1 0.000475005 -2.38574e-09 0.000105714 -2.231e-05 1000.08 5.1638e-15 
21 1 0.000499996 9.75131e-09 -2.28205e-05 0.000128465 1000.04 7.77771e-15 
22 1 0.000524994 -1.28962e-08 -0.00035346 -0.000851529 1000.04 1.39435e-14 
23 1 0.000550017 5.05074e-09 0.000491986 0.000121195 1000.23 1.28372e-14 
24 1 0.000575005 3.67099e-09 9.1183e-05 5.99707e-05 1000.17 5.83322e-15 
25 1 0.000599991 7.71575e-11 -0.000419126 -4.86384e-05 999.95 8.55321e-15 
26 1 0.000625014 -1.70816e-08 0.00074419 -0.0014205 1000.01 1.57429e-14 
27 1 0.000649987 -3.31534e-09 -0.000915771 -0.000242914 1000.07 1.28921e-14 
28 1 0.000674997 1.08704e-08 -8.36369e-05 0.000377056 1000 6.48529e-15 
29 1 0.0007 9.65466e-09 0.000174941 0.000661383 999.977 6.24246e-15 
30 1 0.000725013 -1.03713e-08 0.000645211 -0.000924676 1000.07 1.25603e-14 
31 1 0.000750004 -1.02934e-08 9.28168e-05 -0.000936337 1000.07 7.41624e-15 
32 1 0.000775003 1.57142e-09 -6.61785e-05 0.000164643 1000.1 4.32474e-15 
33 1 0.000799997 7.02648e-09 -0.00056008 0.000279726 1000.12 6.50522e-15 
34 1 0.000825008 1.12477e-09 0.000616176 0.0003008 1000.04 5.80768e-15 
35 1 0.000849998 -3.45987e-10 2.09888e-05 6.20885e-05 1000.05 5.28378e-15 
36 1 0.000874996 -1.05611e-08 -0.000357835 -0.000864155 999.885 9.47546e-15 
37 1 0.0009 6.61573e-09 0.000249169 0.000280101 999.753 6.9783e-15 
38 1 0.000925007 3.32584e-09 0.0003755 0.000198931 999.833 6.73347e-15 
39 1 0.000950013 4.76236e-09 0.000855585 0.000284381 999.942 9.4803e-15 
40 1 0.000975005 -2.38574e-09 0.000105714 -2.231e-05 1000.08 5.1638e-15 
41 1 5.09264e-09 2.49968e-05 0.000449889 0.000230131 999.917 7.72997e-15 
42 1 2.50077e-05 2.4998e-05 0.000591425 0.000161716 999.943 9.78132e-15 
43 1 4.99967e-05 2.49837e-05 -0.000330932 -0.00055281 1000.04 1.19275e-14 
44 1 7.5006e-05 2.49977e-05 0.000322783 -6.26968e-05 1000.01 6.18498e-15 
45 1 0.000100012 2.49977e-05 0.000217043 0.000157111 999.991 7.56027e-15 
46 1 0.000124998 2.49992e-05 -0.000242431 -6.89054e-06 999.998 5.41273e-15 
47 1 0.000150002 2.50004e-05 0.000386769 0.000504361 999.935 5.65019e-15 
48 1 0.000175005 2.50003e-05 0.000343943 -4.46784e-05 999.986 4.44322e-15 
49 1 0.000200006 2.50077e-05 0.000110547 0.000365621 1000.07 4.64743e-15 
50 1 0.00022501 2.50007e-05 0.00107088 3.908e-05 1000.02 7.84289e-15 
51 1 0.000250002 2.50028e-05 0.000194935 0.000333874 999.927 6.27389e-15 
52 1 0.000275012 2.49972e-05 0.00047871 8.93555e-05 1000.13 8.9541e-15 
53 1 0.000299995 2.50124e-05 0.00016583 0.000440429 1000.25 1.12547e-14 
54 1 0.000324987 2.50025e-05 -0.000367309 -0.000167636 1000.2 1.35246e-14 
55 1 0.000350005 2.49973e-05 0.000159954 3.93108e-05 1000.16 7.66239e-15 
56 1 0.000374995 2.50076e-05 -0.000204649 -0.000171512 999.903 7.93464e-15 
57 1 0.000400011 2.50072e-05 0.000393836 0.00060545 999.898 7.64442e-15 
58 1 0.00042501 2.49976e-05 0.000102325 7.56794e-05 1000.05 6.68935e-15 
59 1 0.000450005 2.50003e-05 0.000433621 -2.10938e-05 1000.13 5.20733e-15 
60 1 0.000474992 2.49986e-05 -0.000524962 -0.000659181 1000.11 7.39005e-15 
61 1 0.000500005 2.49968e-05 0.000449889 0.000230131 999.917 7.72997e-15 
62 1 0.000525008 2.4998e-05 0.000591425 0.000161716 999.943 9.7813e-15 
63 1 0.000549997 2.49837e-05 -0.000330927 -0.000552809 1000.04 1.19283e-14 
64 1 0.000575006 2.49977e-05 0.000322813 -6.26903e-05 1000 6.17575e-15 
65 1 0.000600012 2.49977e-05 0.000217255 0.000157188 999.983 7.44498e-15 
66 1 0.000624998 2.49992e-05 -0.000242166 -6.48645e-06 1000 5.38192e-15 
67 1 0.000650002 2.50004e-05 0.000384402 0.000506288 1000 5.68387e-15 
68 1 0.000674993 2.50018e-05 -0.000398316 -6.13045e-05 999.967 4.16698e-15 
69 1 0.000700006 2.50002e-05 -7.52025e-05 0.000173916 999.971 4.29058e-15 
70 1 0.000725005 2.49953e-05 0.000370385 -0.00022993 999.987 5.86567e-15 
71 1 0.000749998 2.49995e-05 -6.15173e-05 0.000316588 999.895 6.75417e-15 
72 1 0.000775012 2.4997e-05 0.000523467 6.85581e-05 1000.1 9.59686e-15 
73 1 0.000799995 2.50124e-05 0.000165877 0.000440309 1000.25 1.13456e-14 
74 1 0.000824987 2.50025e-05 -0.000367285 -0.00016764 1000.2 1.35382e-14 
75 1 0.000850005 2.49973e-05 0.000159956 3.9311e-05 1000.16 7.66207e-15 
76 1 0.000874995 2.50076e-05 -0.000204649 -0.000171512 999.903 7.93465e-15 
77 1 0.000900011 2.50072e-05 0.000393836 0.00060545 999.898 7.64442e-15 
78 1 0.00092501 2.49976e-05 0.000102325 7.56794e-05 1000.05 6.68935e-15 
79 1 0.000950005 2.50003e-05 0.000433621 -2.10938e-05 1000.13 5.20733e-15 
80 1 0.000974992 2.49986e-05 -0.000524962 -0.000659181 1000.11 7.39005e-15 
81 1 -1.21554e-08 5.0004e-05 -0.000284305 0.000118322 1000.05 6.9319e-15 
82 1 2.49937e-05 5.00137e-05 -0.00062954 0.000602872 999.958 1.68692e-14 
83 1 4.99839e-05 4.998e-05 -0.000542022 -0.00118954 999.905 2.10117e-14 
84 1 7.50022e-05 5.00063e-05 0.000187885 0.000270179 999.905 8.17285e-15 
85 1 9.99957e-05 5.00047e-05 0.000133716 0.000319068 1000.04 5.09081e-15 
86 1 0.000124991 4.99887e-05 -0.000279813 -0.000436707 999.95 7.37035e-15 
87 1 0.000149997 5.00019e-05 -0.000578325 0.000188417 999.876 4.54632e-15 
88 1 0.000175007 4.99937e-05 0.000509404 4.14143e-05 1000.04 6.96323e-15 
89 1 0.000200001 5.00073e-05 6.71097e-06 0.000573033 1000.2 7.12806e-15 
90 1 0.000224996 4.99943e-05 -0.000286266 6.93965e-05 1000.2 7.85498e-15 
91 1 0.000249985 5.00187e-05 -0.000490053 0.00116643 1000.05 2.65895e-14 
92 1 0.000274997 4.99793e-05 -0.000346554 -0.00124114 999.922 1.95233e-14 
93 1 0.000300005 4.99906e-05 -0.000229329 -0.000568881 999.941 1.01318e-14 
94 1 0.000325024 4.99896e-05 0.00124647 -0.000486247 1000.1 2.43472e-14 
95 1 0.000349996 4.9983e-05 -0.000231716 -0.000936144 1000.16 1.27317e-14 
96 1 0.000375001 5.00051e-05 0.000196159 0.000326822 1000.09 6.56017e-15 
97 1 0.000400005 5.0009e-05 0.000353536 0.000565072 1000.2 9.41462e-15 
98 1 0.000424986 4.99869e-05 -0.000917827 -0.000964264 1000.05 1.76394e-14 
99 1 0.000450002 5.00038e-05 -0.00020726 -0.000152146 1000.01 5.76993e-15 
100 1 0.000474996 5.00032e-05 -0.00027525 5.57713e-06 1000.18 4.80848e-15 
101 1 0.000499988 5.0004e-05 -0.000284305 0.000118322 1000.05 6.9319e-15 
102 1 0.000524994 5.00137e-05 -0.00062954 0.000602872 999.958 1.68693e-14 
103 1 0.000549984 4.998e-05 -0.000542016 -0.00118954 999.905 2.10132e-14 
104 1 0.000575002 5.00063e-05 0.000187951 0.000270196 999.902 8.15107e-15 
105 1 0.000599996 5.00047e-05 0.000134189 0.000319227 1000.02 5.01623e-15 
106 1 0.000624992 4.99891e-05 -0.00021564 -0.000422012 999.939 7.02625e-15 
107 1 0.00065 5.00026e-05 -0.000340537 0.000294992 999.952 5.07252e-15 
108 1 0.000675003 5.00026e-05 0.000468493 0.000423818 1000.03 5.52628e-15 
109 1 0.000700008 5.00027e-05 0.000567743 0.000158541 1000.12 7.17563e-15 
110 1 0.000724995 4.99987e-05 -0.000365892 0.00028 1000.17 7.85823e-15 
111 1 0.000749985 5.00205e-05 -0.00051268 0.00125556 999.998 2.8278e-14 
112 1 0.000774997 4.99793e-05 -0.000346959 -0.00124114 999.89 1.9745e-14 
113 1 0.000800005 4.99906e-05 -0.000229301 -0.000568896 999.939 1.0177e-14 
114 1 0.000825024 4.99896e-05 0.00124647 -0.00048625 1000.1 2.43467e-14 
115 1 0.000849996 4.9983e-05 -0.000231714 -0.000936143 1000.16 1.27319e-14 
116 1 0.000875001 5.00051e-05 0.000196159 0.000326822 1000.09 6.56018e-15 
117 1 0.000900005 5.0009e-05 0.000353536 0.000565072 1000.2 9.41461e-15 
118 1 0.000924986 4.99869e-05 -0.000917827 -0.000964264 1000.05 1.76394e-14 
119 1 0.000950002 5.00038e-05 -0.00020726 -0.000152146 1000.01 5.76993e-15 
120 1 0.000974996 5.00032e-05 -0.00027525 5.57713e-06 1000.18 4.80848e-15 
121 1 -1.33507e-08 7.50031e-05 -0.000873489 9.74509e-06 1000.17 1.04196e-14 
122 1 2.49953e-05 7.4986e-05 -0.000205825 -0.000448558 999.877 1.17831e-14 
123 1 5.00154e-05 7.49883e-05 0.00109976 -0.000829973 999.824 1.8131e-14 
124 1 7.49944e-05 7.50042e-05 -0.000190878 0.000101946 999.949 6.82845e-15 
125 1 9.99972e-05 7.4995e-05 -0.000154275 -0.000306643 999.973 4.9909e-15 
126 1 0.000124997 7.49983e-05 -0.000280814 -0.000351598 999.795 5.58513e-15 
127 1 0.000149997 7.50072e-05 1.9539e-05 0.000612885 999.801 7.1931e-15 
128 1 0.00017499 7.49883e-05 -0.00100068 -0.000992203 999.929 1.48097e-14 
129 1 0.000199991 7.49969e-05 -0.00106199 -0.000314557 999.951 9.28282e-15 
130 1 0.000224997 7.49855e-05 -0.000155304 -0.00127691 999.984 1.26097e-14 
131 1 0.000250015 7.49947e-05 0.000487411 -0.000304629 999.913 1.64843e-14 
132 1 0.000274997 7.49968e-05 -0.000145404 6.59701e-05 999.769 9.05958e-15 
133 1 0.000299999 7.50164e-05 5.82169e-05 0.00102133 999.791 1.48108e-14 
134 1 0.000324992 7.49954e-05 -0.00045526 -0.000323676 999.837 9.43426e-15 
135 1 0.000349988 7.49919e-05 -0.000907594 -0.000248392 999.73 1.10244e-14 
136 1 0.000375002 7.49909e-05 0.000210259 -0.000281253 999.817 6.95776e-15 
137 1 0.000399998 7.49886e-05 7.18379e-05 -0.000292405 1000.05 9.91541e-15 
138 1 0.000424986 7.50104e-05 -0.000710849 0.000277491 999.933 1.64254e-14 
139 1 0.00045001 7.49916e-05 0.000504777 -0.000308219 999.946 9.19486e-15 
140 1 0.000475004 7.49996e-05 0.000281666 0.000441833 1000.26 5.52523e-15 
141 1 0.000499987 7.50031e-05 -0.000873489 9.74509e-06 1000.17 1.04196e-14 
142 1 0.000524995 7.4986e-05 -0.000205825 -0.000448559 999.877 1.17831e-14 
143 1 0.000550015 7.49883e-05 0.00109976 -0.000829974 999.824 1.81294e-14 
144 1 0.000574994 7.50042e-05 -0.000190844 0.000101948 999.948 6.82505e-15 
145 1 0.000599997 7.4995e-05 -0.000153967 -0.00030655 999.964 4.96754e-15 
146 1 0.000624997 7.49983e-05 -0.000279701 -0.000351028 999.784 5.78791e-15 
147 1 0.000649999 7.50079e-05 0.00013617 0.000654612 999.855 7.3414e-15 
148 1 0.000674989 7.49874e-05 -0.00100156 -0.000949196 999.965 1.58899e-14 
149 1 0.000699992 7.49961e-05 -0.00110245 -0.000333621 999.957 9.1929e-15 
150 1 0.000724996 7.49842e-05 -0.000405505 -0.00122059 1000.03 1.52207e-14 
151 1 0.000750015 7.49947e-05 0.000487401 -0.000304156 999.94 1.72581e-14 
152 1 0.000774997 7.49968e-05 -0.000145458 6.61658e-05 999.772 9.24452e-15 
153 1 0.000799999 7.50164e-05 5.82178e-05 0.00102135 999.792 1.48206e-14 
154 1 0.000824992 7.49954e-05 -0.000455264 -0.000323673 999.837 9.43378e-15 
155 1 0.000849988 7.49919e-05 -0.000907594 -0.000248391 999.73 1.10245e-14 
156 1 0.000875002 7.49909e-05 0.000210259 -0.000281253 999.817 6.95777e-15 
157 1 0.000899998 7.49886e-05 7.18379e-05 -0.000292405 1000.05 9.91541e-15 
158 1 0.000924986 7.50104e-05 -0.000710849 0.000277491 999.933 1.64254e-14 
159 1 0.00095001 7.49916e-05 0.000504777 -0.000308219 999.946 9.19486e-15 
160 1 0.000975004 7.49996e-05 0.000281666 0.000441833 1000.26 5.52523e-15 
161 1 -3.35163e-09 9.99931e-05 0.000157057 -0.000427908 999.901 6.09151e-15 
162 1 2.5014e-05 9.99985e-05 0.000666568 8.87987e-05 999.803 1.14992e-14 
163 1 4.99943e-05 0.000100008 -0.000385098 0.000289727 999.869 1.01584e-14 
164 1 7.5006e-05 0.000100004 0.000361828 0.000134612 999.97 4.99093e-15 
165 1 9.99983e-05 0.000100005 0.000168707 0.000249732 1000 4.5065e-15 
166 1 0.000124988 0.000100016 -0.000898386 0.000942967 999.874 1.52337e-14 
167 1 0.00015001 9.99937e-05 0.000567679 -0.000617897 999.949 1.09469e-14 
168 1 0.000175009 0.000100015 0.000520548 0.000732084 1000.02 1.50895e-14 
169 1 0.000200006 0.000100007 0.000526004 0.000221251 999.978 8.23932e-15 
170 1 0.000224997 0.000100002 -0.000215725 0.000152709 999.915 6.26753e-15 
171 1 0.000249985 0.000100002 -0.00093733 -0.000155498 999.867 1.44209e-14 
172 1 0.000275008 0.000100011 0.00112936 0.000158219 999.899 1.19241e-14 
173 1 0.000300003 9.99981e-05 0.000396142 0.000333651 1000.08 5.63087e-15 
174 1 0.000325005 0.000100008 0.000335006 0.000567518 1000.07 6.75935e-15 
175 1 0.000350006 0.00010001 0.000639977 0.000531311 999.775 8.92455e-15 
176 1 0.000375008 0.000100012 2.05712e-05 0.000676675 999.71 1.10764e-14 
177 1 0.000400002 0.000100005 0.000347449 0.000225969 999.865 6.85554e-15 
178 1 0.000425019 9.99918e-05 0.000753386 -0.000218929 999.903 1.77242e-14 
179 1 0.000449996 9.99996e-05 1.66501e-05 -0.000609143 999.906 7.96749e-15 
180 1 0.000475007 9.99963e-05 0.000583459 0.000218396 1000.04 5.73313e-15 
181 1 0.000499997 9.99931e-05 0.000157057 -0.000427908 999.901 6.09151e-15 
182 1 0.000525014 9.99985e-05 0.000666568 8.87987e-05 999.803 1.14992e-14 
183 1 0.000549994 0.000100008 -0.000385097 0.000289726 999.869 1.01586e-14 
184 1 0.000575006 0.000100004 0.000361835 0.000134606 999.97 4.99011e-15 
185 1 0.000599998 0.000100005 0.000168777 0.000249738 1000 4.5014e-15 
186 1 0.000624988 0.000100016 -0.000897976 0.00094337 999.861 1.52157e-14 
187 1 0.00065001 9.99937e-05 0.000568549 -0.000615294 999.901 1.10211e-14 
188 1 0.000675008 0.000100017 0.000641711 0.000762167 999.945 1.45385e-14 
189 1 0.000700002 9.99989e-05 0.000280768 -0.000302604 999.926 5.95625e-15 
190 1 0.000725002 0.000100004 0.000350197 -0.000113882 999.947 8.15841e-15 
191 1 0.000749984 0.000100002 -0.000974225 -0.000181319 999.885 1.43132e-14 
192 1 0.000775008 0.000100011 0.00112853 0.000158162 999.881 1.20499e-14 
193 1 0.000800003 9.99981e-05 0.000396026 0.000333654 1000.08 5.62048e-15 
194 1 0.000825005 0.000100008 0.000334992 0.000567525 1000.07 6.7568e-15 
195 1 0.000850006 0.00010001 0.000639975 0.000531311 999.775 8.92443e-15 
196 1 0.000875008 0.000100012 2.05712e-05 0.000676675 999.71 1.10764e-14 
197 1 0.000900002 0.000100005 0.000347449 0.000225969 999.865 6.85554e-15 
198 1 0.000925019 9.99918e-05 0.000753386 -0.000218929 999.903 1.77242e-14 
199 1 0.000949996 9.99996e-05 1.66501e-05 -0.000609143 999.906 7.96749e-15 
200 1 0.000975007 9.99963e-05 0.000583459 0.000218396 1000.04 5.73313e-15 
201 1 -4.34063e-09 0.000124995 -0.000505508 -0.000444303 999.802 5.47355e-15 
202 1 2.50095e-05 0.000125001 0.000737621 -6.56156e-05 999.87 7.8784e-15 
203 1 4.99937e-05 0.000125004 -0.00022486 0.000325176 1000.03 5.97755e-15 
204 1 7.50069e-05 0.000125002 -7.56418e-05 0.000135742 1000.12 4.30329e-15 
205 1 9.9999e-05 0.000125014 -0.000220159 0.000984485 1000.24 8.70785e-15 
206 1 0.000125008 0.000124997 0.00073671 1.58089e-05 1000.15 7.83037e-15 
207 1 0.000150008 0.000125003 0.000117048 0.000283745 1000.13 7.84409e-15 
208 1 0.000174993 0.00012499 -0.000701353 -0.000613256 1000.15 1.52075e-14 
209 1 0.000199998 0.000125002 9.87128e-05 0.000202506 1000.04 6.87203e-15 
210 1 0.000225009 0.000124993 0.000634162 -0.000508881 999.918 1.00967e-14 
211 1 0.00025001 0.000125001 0.000481708 0.000425858 1000 7.90985e-15 
212 1 0.000274995 0.00012501 -0.000899197 0.000219787 1000.13 1.07264e-14 
213 1 0.000300009 0.000124988 0.000274713 -0.000807498 1000.26 1.20862e-14 
214 1 0.000324997 0.000125007 -0.000256611 0.000285553 1000.36 8.01395e-15 
215 1 0.00034998 0.000125011 -0.00110007 0.000172613 1000.2 1.38432e-14 
216 1 0.000374989 0.000124996 -0.000245677 -0.000348417 999.909 1.00754e-14 
217 1 0.000400013 0.000125008 0.000805627 0.000233739 999.996 1.15008e-14 
218 1 0.000424987 0.000125004 -0.000142559 0.00013487 1000.04 1.17767e-14 
219 1 0.000450008 0.000125008 0.000451521 0.00055399 999.985 9.1482e-15 
220 1 0.000474993 0.000125007 -0.000599579 0.000273909 1000.01 5.93768e-15 
221 1 0.000499996 0.000124995 -0.000505508 -0.000444303 999.802 5.47355e-15 
222 1 0.000525009 0.000125001 0.000737621 -6.56156e-05 999.87 7.8784e-15 
223 1 0.000549994 0.000125004 -0.00022486 0.000325176 1000.03 5.97755e-15 
224 1 0.000575007 0.000125002 -7.56423e-05 0.000135737 1000.12 4.30415e-15 
225 1 0.000599999 0.000125014 -0.000220164 0.000984453 1000.24 8.74011e-15 
226 1 0.000625008 0.000124997 0.000736521 1.62373e-05 1000.16 7.87581e-15 
227 1 0.000650008 0.000125003 0.000117319 0.000286445 1000.14 6.5807e-15 
228 1 0.000674998 0.000125008 -0.000372508 0.000514167 1000.14 6.92274e-15 
229 1 0.000700001 0.000125001 -0.000120726 0.000367787 1000.04 4.48755e-15 
230 1 0.000725002 0.000124989 0.000379489 -0.000490029 999.98 8.94088e-15 
231 1 0.000750003 0.000125001 2.24219e-06 0.00037253 1000 6.23666e-15 
232 1 0.000774996 0.00012501 -0.000890899 0.000218944 1000.09 1.00679e-14 
233 1 0.000800009 0.000124988 0.000274473 -0.000807529 1000.25 1.20582e-14 
234 1 0.000824997 0.000125007 -0.00025663 0.000285552 1000.36 8.01101e-15 
235 1 0.00084998 0.000125011 -0.00110008 0.000172613 1000.2 1.38422e-14 
236 1 0.000874989 0.000124996 -0.000245677 -0.000348417 999.909 1.00754e-14 
237 1 0.000900013 0.000125008 0.000805627 0.000233739 999.996 1.15008e-14 
238 1 0.000924987 0.000125004 -0.000142559 0.00013487 1000.04 1.17767e-14 
239 1 0.000950008 0.000125008 0.000451521 0.00055399 999.985 9.1482e-15 
240 1 0.000974993 0.000125007 -0.000599579 0.000273909 1000.01 5.93768e-15 
241 1 -1.13745e-08 0.000150009 -0.000604357 0.000334727 1000.02 1.15407e-14 
242 1 2.49931e-05 0.000149995 -0.00016568 2.14179e-05 999.911 6.82326e-15 
243 1 5.00028e-05 0.000150006 2.7934e-05 0.000248051 999.929 4.90062e-15 
244 1 7.50007e-05 0.000149992 0.000243351 -0.000541621 1000.12 6.26673e-15 
245 1 9.99981e-05 0.00014999 -0.000400987 -0.000636221 1000.13 7.45599e-15 
246 1 0.000125002 0.000149992 0.000589067 -0.000274984 999.967 6.51774e-15 
247 1 0.000149997 0.000149988 -6.8813e-05 -0.000681091 1000.03 1.02098e-14 
248 1 0.000175003 0.000150021 0.000887305 0.00112607 1000.13 2.36051e-14 
249 1 0.000199989 0.00014999 -0.000778827 -0.000568508 999.955 1.2713e-14 
250 1 0.000224994 0.000150006 -0.00035388 0.000395 999.853 8.76758e-15 
251 1 0.000250011 0.000150008 0.000768099 0.000199541 1000.05 9.34711e-15 
252 1 0.000275006 0.00014999 0.000269138 -8.65366e-05 1000.22 8.56333e-15 
253 1 0.000299989 0.000150006 -0.000591454 0.00025123 1000.18 1.16834e-14 
254 1 0.000324992 0.00014998 -0.000305345 -0.00112408 1000.13 1.7677e-14 
255 1 0.000349992 0.00015001 -0.000709016 0.000314737 1000.11 1.2826e-14 
256 1 0.000374991 0.000149987 -0.000729606 -0.000680638 999.946 1.50872e-14 
257 1 0.000400009 0.000150004 0.000331567 0.000421838 1000.2 1.00062e-14 
258 1 0.000424991 0.00015 -0.000833666 0.000491308 1000.25 9.15126e-15 
259 1 0.000450004 0.000149999 0.00027514 0.000152334 1000.1 6.72396e-15 
260 1 0.000474993 0.000150005 -0.000713433 0.00029398 1000.18 7.06466e-15 
261 1 0.000499989 0.000150009 -0.000604357 0.000334727 1000.02 1.15407e-14 
262 1 0.000524993 0.000149995 -0.00016568 2.14179e-05 999.911 6.82326e-15 
263 1 0.000550003 0.000150006 2.79329e-05 0.000248051 999.929 4.90071e-15 
264 1 0.000575001 0.000149992 0.00024335 -0.000541624 1000.12 6.26795e-15 
265 1 0.000599998 0.00014999 -0.000401055 -0.000636247 1000.13 7.48772e-15 
266 1 0.000625003 0.000149992 0.000638565 -0.000271524 999.994 6.56154e-15 
267 1 0.000649994 0.000149988 -0.000238511 -0.000800739 1000.1 1.01999e-14 
268 1 0.000674999 0.00015001 0.000638992 0.000487474 1000.18 8.8263e-15 
269 1 0.0007 0.000149997 0.00012559 -0.000383378 1000.02 5.7508e-15 
270 1 0.000724997 0.000150008 -0.000237737 0.000438185 999.96 9.2167e-15 
271 1 0.000750012 0.000150007 0.000787017 0.000158664 1000.09 9.93739e-15 
272 1 0.000775006 0.00014999 0.000268505 -8.69753e-05 1000.2 8.41927e-15 
273 1 0.000799989 0.000150006 -0.000591535 0.000251169 1000.17 1.16554e-14 
274 1 0.000824992 0.00014998 -0.000305356 -0.00112409 1000.13 1.76731e-14 
275 1 0.000849992 0.00015001 -0.000709017 0.000314737 1000.11 1.28259e-14 
276 1 0.000874991 0.000149987 -0.000729606 -0.000680638 999.946 1.50872e-14 
277 1 0.000900009 0.000150004 0.000331567 0.000421838 1000.2 1.00062e-14 
278 1 0.000924991 0.00015 -0.000833666 0.000491308 1000.25 9.15126e-15 
279 1 0.000950004 0.000149999 0.00027514 0.000152334 1000.1 6.72396e-15 
280 1 0.000974993 0.000150005 -0.000713433 0.00029398 1000.18 7.06466e-15 
281 1 1.77363e-08 0.000174992 0.0008801 -0.000281021 999.996 1.61205e-14 
282 1 2.49916e-05 0.000175009 -0.000205074 0.000723867 1000.05 1.09965e-14 
283 1 5.00069e-05 0.000174998 0.0004802 0.000475902 1000.02 6.48183e-15 
284 1 7.50091e-05 0.00017501 0.000300996 0.000543613 1000.13 9.76207e-15 
285 1 9.99838e-05 0.000174999 -0.000747969 -0.000182873 999.991 1.11736e-14 
286 1 0.000124999 0.000174994 -0.000206827 -0.00036346 999.79 4.59482e-15 
287 1 0.000150009 0.000175011 0.000327163 0.000115434 999.964 1.05649e-14 
288 1 0.000175 0.000174991 -0.000373273 4.94874e-05 1000.11 1.09271e-14 
289 1 0.000199997 0.000175001 -0.000259968 -0.000343407 999.875 6.07272e-15 
290 1 0.000225012 0.000174991 0.000745653 -0.000519643 999.857 1.24417e-14 
291 1 0.000249993 0.000174995 -0.00058388 -0.000324552 999.976 8.02716e-15 
292 1 0.000275012 0.000175001 0.000884568 0.000218471 1000 9.78174e-15 
293 1 0.000299994 0.000174994 -0.000253114 -0.00055275 999.856 7.16929e-15 
294 1 0.000325005 0.000174993 8.03547e-05 -0.00012628 999.645 8.42486e-15 
295 1 0.000350025 0.000174994 0.00134031 -0.000377046 999.788 2.25805e-14 
296 1 0.000375007 0.000175003 0.000553061 0.000250838 999.912 1.00347e-14 
297 1 0.000400002 0.000174992 -0.000157977 -0.000686126 1000.16 8.66886e-15 
298 1 0.000424988 0.000174991 -0.000232518 -0.000775857 1000.11 1.07648e-14 
299 1 0.000449986 0.000174998 -0.00076442 -0.000541103 999.815 1.21274e-14 
300 1 0.000475005 0.000174984 0.000555471 -0.000523496 999.814 1.40136e-14 
301 1 0.000500018 0.000174992 0.0008801 -0.000281021 999.996 1.61205e-14 
302 1 0.000524992 0.000175009 -0.000205074 0.000723867 1000.05 1.09966e-14 
303 1 0.000550007 0.000174998 0.0004802 0.000475903 1000.02 6.48181e-15 
304 1 0.000575009 0.00017501 0.000300993 0.000543615 1000.13 9.76221e-15 
305 1 0.000599984 0.000174999 -0.000747958 -0.000182862 999.989 1.12181e-14 
306 1 0.000624999 0.000174994 -0.000207107 -0.000363749 999.799 4.67029e-15 
307 1 0.00065001 0.000175011 0.000400467 8.17992e-05 999.987 1.20108e-14 
308 1 0.000674997 0.000174988 -0.000449905 -3.48931e-05 1000.08 1.09916e-14 
309 1 0.000699992 0.000174999 -0.000551807 -0.000300829 999.794 8.64781e-15 
310 1 0.000725014 0.00017498 0.00101845 -0.000824919 999.792 2.52316e-14 
311 1 0.000749993 0.000174995 -0.000582768 -0.000325076 999.946 1.00176e-14 
312 1 0.000775012 0.000175001 0.000884744 0.000218188 1000 9.95028e-15 
313 1 0.000799994 0.000174994 -0.00025312 -0.000552793 999.857 7.16195e-15 
314 1 0.000825005 0.000174993 8.03549e-05 -0.000126285 999.645 8.42426e-15 
315 1 0.000850025 0.000174994 0.00134031 -0.000377046 999.788 2.25802e-14 
316 1 0.000875007 0.000175003 0.000553061 0.000250838 999.912 1.00347e-14 
317 1 0.000900002 0.000174992 -0.000157977 -0.000686126 1000.16 8.66886e-15 
318 1 0.000924988 0.000174991 -0.000232518 -0.000775857 1000.11 1.07648e-14 
319 1 0.000949986 0.000174998 -0.00076442 -0.000541103 999.815 1.21274e-14 
320 1 0.000975005 0.000174984 0.000555471 -0.000523496 999.814 1.40136e-14 
321 1 9.19809e-09 0.000200015 0.000344132 0.00061633 1000.01 1.10245e-14 
322 1 2.50072e-05 0.000200004 0.000447122 -0.000182672 1000.21 6.75736e-15 
323 1 4.99961e-05 0.000199992 -0.000305626 -0.000355762 1000.12 6.58035e-15 
324 1 7.49975e-05 0.000199995 0.000129296 -0.000168907 1000.07 5.18511e-15 
325 1 0.000100005 0.000199998 0.000322923 0.000207689 1000.02 5.68069e-15 
326 1 0.000124998 0.000199999 -0.000617123 0.000457218 999.987 5.69831e-15 
327 1 0.000150008 0.000199994 0.0008129 -0.000230668 1000.05 7.1724e-15 
328 1 0.000175003 0.000200006 -0.000117819 6.43967e-05 1000.05 5.23697e-15 
329 1 0.000199996 0.000200013 -0.000303953 0.000530094 999.864 6.56804e-15 
330 1 0.000224999 0.000200006 -0.000159883 0.000145238 999.906 4.33758e-15 
331 1 0.000249995 0.000199998 5.21773e-05 -0.000170489 1000.01 5.7051e-15 
332 1 0.000274996 0.000200008 -0.000292308 0.000367763 999.991 8.38596e-15 
333 1 0.000299997 0.000200007 -0.000210053 0.000620874 999.918 6.26328e-15 
334 1 0.000325008 0.000200006 0.000521347 0.000413164 999.816 7.60534e-15 
335 1 0.000349998 0.000200009 -4.52645e-05 0.00086904 999.99 1.04485e-14 
336 1 0.000375006 0.000200025 0.00034147 0.00104441 1000.03 2.30894e-14 
337 1 0.000400006 0.000199981 7.18615e-05 -0.00100685 999.962 1.85374e-14 
338 1 0.000425004 0.000200007 0.000324925 0.000581816 999.913 1.1535e-14 
339 1 0.000450007 0.000200014 0.000296644 0.00075273 999.856 1.6159e-14 
340 1 0.000475003 0.0002 0.00015511 0.000119079 999.814 6.67043e-15 
341 1 0.000500009 0.000200015 0.000344132 0.00061633 1000.01 1.10245e-14 
342 1 0.000525007 0.000200004 0.000447122 -0.000182672 1000.21 6.75736e-15 
343 1 0.000549996 0.000199992 -0.000305624 -0.000355761 1000.12 6.58058e-15 
344 1 0.000574997 0.000199995 0.000129297 -0.000168903 1000.07 5.18571e-15 
345 1 0.000600005 0.000199998 0.000322921 0.00020771 1000.02 5.68253e-15 
346 1 0.000624998 0.000199999 -0.000617191 0.00045724 999.99 5.77332e-15 
347 1 0.000650008 0.000199994 0.00081131 -0.000230769 1000.06 7.71325e-15 
348 1 0.000674997 0.000200004 -0.000330784 6.25246e-08 999.991 5.28941e-15 
349 1 0.000699996 0.00020001 -0.000685105 0.000514063 999.723 8.33062e-15 
350 1 0.000725 0.00020002 -0.000190382 0.000602432 999.796 1.47888e-14 
351 1 0.000749995 0.000199998 5.41973e-05 -0.000151482 999.982 8.06678e-15 
352 1 0.000774996 0.000200008 -0.000292051 0.000368177 999.996 8.63736e-15 
353 1 0.000799997 0.000200007 -0.000210033 0.000620677 999.923 6.31481e-15 
354 1 0.000825008 0.000200006 0.000521352 0.000413141 999.817 7.60957e-15 
355 1 0.000849998 0.000200009 -4.52634e-05 0.00086904 999.99 1.04486e-14 
356 1 0.000875006 0.000200025 0.00034147 0.00104441 1000.03 2.30895e-14 
357 1 0.000900006 0.000199981 7.18615e-05 -0.00100685 999.962 1.85374e-14 
358 1 0.000925004 0.000200007 0.000324925 0.000581816 999.913 1.1535e-14 
359 1 0.000950007 0.000200014 0.000296644 0.00075273 999.856 1.6159e-14 
360 1 0.000975003 0.0002 0.00015511 0.000119079 999.814 6.67043e-15 
361 1 6.31599e-09 0.000224996 0.000169258 -0.00037395 1000.08 6.88538e-15 
362 1 2.4996e-05 0.000224995 -0.000218511 -2.01123e-05 1000.04 6.08883e-15 
363 1 5.00057e-05 0.000224989 0.00039061 -0.000559814 999.933 7.5811e-15 
364 1 7.50058e-05 0.000225001 0.000526707 -2.32355e-05 999.882 8.51329e-15 
365 1 0.000100008 0.000225005 0.000272928 -0.000508834 999.938 9.06651e-15 
366 1 0.000125002 0.000224985 0.000199543 -0.00104858 1000.03 9.33703e-15 
367 1 0.000149996 0.000225 1.08383e-05 -1.29279e-05 1000.01 4.18584e-15 
368 1 0.000174989 0.000225003 -0.000654558 -0.000115387 1000.04 5.62362e-15 
369 1 0.000200002 0.000225006 -5.29393e-05 0.000425351 1000.08 3.79881e-15 
370 1 0.000225003 0.000225005 -5.87642e-05 0.000511256 1000.12 5.16235e-15 
371 1 0.000250005 0.000225 0.000160488 0.000132367 1000.18 5.40796e-15 
372 1 0.000274995 0.000225001 -5.07831e-05 0.000160253 1000.15 6.51159e-15 
373 1 0.000299998 0.000224989 6.37373e-05 -0.000235097 1000.06 7.8967e-15 
374 1 0.000324994 0.000224999 0.000106202 -0.000456579 1000.06 5.40779e-15 
375 1 0.000349999 0.000224994 -0.000330044 -0.0005936 1000.23 8.32819e-15 
376 1 0.000374987 0.000225003 -0.000868372 0.000471284 1000.24 1.26235e-14 
377 1 0.00039999 0.00022501 0.000127854 0.000279426 999.983 1.18766e-14 
378 1 0.000424982 0.000224997 -0.00101124 3.75104e-05 999.819 1.71947e-14 
379 1 0.00045001 0.000224981 0.000744413 -0.0010094 999.946 1.81131e-14 
380 1 0.000474999 0.000225004 0.000180315 -8.81581e-05 1000.05 6.2707e-15 
381 1 0.000500006 0.000224996 0.000169258 -0.00037395 1000.08 6.88538e-15 
382 1 0.000524996 0.000224995 -0.00021851 -2.01122e-05 1000.04 6.08883e-15 
383 1 0.000550006 0.000224989 0.000390613 -0.000559813 999.933 7.58086e-15 
384 1 0.000575006 0.000225001 0.000526723 -2.32203e-05 999.881 8.51049e-15 
385 1 0.000600008 0.000225005 0.000273001 -0.000508732 999.933 9.03564e-15 
386 1 0.000625002 0.000224985 0.000199607 -0.00104829 1000.03 9.51282e-15 
387 1 0.000649996 0.000225 9.04042e-06 -1.16806e-05 1000.07 4.40844e-15 
388 1 0.00067499 0.000225011 -0.000549642 0.000375137 1000.04 7.24792e-15 
389 1 0.0007 0.000225 -1.77917e-05 -2.53532e-05 999.987 4.85436e-15 
390 1 0.00072501 0.000225007 0.000417597 0.000532037 1000.17 8.80573e-15 
391 1 0.000750005 0.000225003 0.000103196 0.000285101 1000.27 6.52973e-15 
392 1 0.000774995 0.000224999 -3.54933e-05 7.76544e-05 1000.17 6.82291e-15 
393 1 0.000799998 0.000224989 6.38001e-05 -0.000235392 1000.06 7.83139e-15 
394 1 0.000824994 0.000224999 0.000106208 -0.000456635 1000.06 5.40785e-15 
395 1 0.000849999 0.000224994 -0.000330045 -0.0005936 1000.23 8.32831e-15 
396 1 0.000874987 0.000225003 -0.000868372 0.000471284 1000.24 1.26235e-14 
397 1 0.00089999 0.00022501 0.000127854 0.000279426 999.983 1.18766e-14 
398 1 0.000924982 0.000224997 -0.00101124 3.75104e-05 999.819 1.71947e-14 
399 1 0.00095001 0.000224981 0.000744413 -0.0010094 999.946 1.81131e-14 