ITEM: TIMESTEP
230
ITEM: NUMBER OF ATOMS
1600
ITEM: BOX BOUNDS pp pp pp
0 0.001
0 0.001
-1e-06 1e-06
ITEM: ATOMS id type x y vx vy c_rho_peratom c_e_peratom 
1 1 -7.26274e-11 2.32296e-07 9.93933e-06 0.000466102 996.863 4.00733e-13 
2 1 2.49832e-05 0.000999687 0.000868084 -0.001057 1000.62 5.727e-13 
3 1 5.01364e-05 0.000999751 0.000382046 -0.0024973 1001.6 5.88089e-13 
4 1 7.4994e-05 0.000999954 -9.82361e-05 0.000190398 998.971 2.50394e-13 
5 1 9.98083e-05 0.000999867 -0.00115944 -0.000352524 994.76 4.99345e-13 
6 1 0.000125283 0.000999615 0.00198272 -0.00153224 996.339 8.89476e-13 
7 1 0.000150096 0.000999973 0.00065611 0.000881744 1001.71 2.96892e-13 
8 1 0.000174858 6.19794e-08 0.000511433 0.00084763 1001.56 3.11111e-13 
9 1 0.000200108 0.000999976 0.000911947 -0.000500646 999.922 2.59629e-13 
10 1 0.000225089 0.000999931 0.00123374 -0.000518586 1000.08 3.39144e-13 
11 1 0.000250129 0.000999767 0.00192947 -0.00167087 997.841 5.82777e-13 
12 1 0.000275268 1.18932e-08 0.00197768 1.6784e-05 997.895 4.50843e-13 
13 1 0.000300035 0.000999993 0.000680189 0.000477102 999.193 2.47013e-13 
14 1 0.000325243 0.000999933 0.00172426 0.000559287 1000.37 3.89789e-13 
15 1 0.000349833 8.01165e-08 -0.00204657 0.00137142 1001.84 3.96844e-13 
16 1 0.000374838 0.000999716 -0.00105005 -0.00202012 999.613 5.65164e-13 
17 1 0.000399677 8.10859e-08 -0.00228953 0.00149463 996.534 9.0189e-13 
18 1 0.000424954 5.4314e-08 -0.000151777 0.000747121 994.969 4.04737e-13 
19 1 0.00045007 0.000999877 -0.000547413 -0.000351049 996.961 3.60973e-13 
20 1 0.000475 0.000999868 -0.000378188 -0.0013663 997.78 3.08994e-13 
21 1 0.000500005 2.30306e-07 0.000430258 0.000515276 996.874 3.97044e-13 
22 1 0.00052498 0.000999689 0.00059174 -0.000857353 1000.66 5.6673e-13 
23 1 0.000550142 0.000999751 0.000855685 -0.00229673 1001.63 5.91465e-13 
24 1 0.000574996 0.000999949 0.000116689 -0.000276061 998.932 2.52801e-13 
25 1 0.000599812 0.000999866 -0.000263236 -0.000589046 994.723 4.98241e-13 
26 1 0.000625284 0.00099962 0.00242374 -0.0013337 996.612 9.00105e-13 
27 1 0.00065009 0.000999969 4.07385e-05 0.000288436 1002.65 3.37759e-13 
28 1 0.000674813 1.00897e-07 4.19235e-05 0.000240905 1001.11 3.68941e-13 
29 1 0.00069994 4.06715e-08 -0.00079943 -0.00106386 998.019 2.61089e-13 
30 1 0.000725112 0.00099996 0.00152841 -3.58127e-05 998.698 3.00902e-13 
31 1 0.000750137 0.000999762 0.00165202 -0.00177888 997.141 6.14262e-13 
32 1 0.000775266 1.04501e-08 0.0018548 -0.000248905 997.714 4.56658e-13 
33 1 0.000800034 0.000999991 0.000489966 2.14187e-05 999.203 2.48171e-13 
34 1 0.000825247 0.000999934 0.00213946 0.00075345 1000.35 3.99758e-13 
35 1 0.00084984 7.58748e-08 -0.00121602 0.00131362 1001.92 3.77941e-13 
36 1 0.000874838 0.000999718 -0.00108372 -0.0019122 999.771 5.6369e-13 
37 1 0.000899678 7.95303e-08 -0.00269302 0.00164886 996.609 8.90693e-13 
38 1 0.000924949 4.67229e-08 -0.000881519 -0.00010431 994.971 3.97939e-13 
39 1 0.000950076 0.000999875 6.03128e-05 -0.000508181 996.948 3.59056e-13 
40 1 0.000975003 0.000999868 -0.000178916 -0.00102777 997.801 3.05842e-13 
41 1 1.06923e-07 2.51757e-05 0.000913243 0.00125946 1000.15 3.68309e-13 
42 1 2.50802e-05 2.50945e-05 -0.00112038 0.00136658 999.994 3.51572e-13 
43 1 4.97499e-05 2.49241e-05 -0.00160863 0.000534669 997.992 4.323e-13 
44 1 7.4822e-05 2.51651e-05 -0.00085283 0.00141067 995.939 4.48185e-13 
45 1 0.000100002 2.51917e-05 -0.000949554 0.00115947 995.957 4.21371e-13 
46 1 0.000124966 2.52002e-05 0.000782892 0.0019536 997.136 5.37873e-13 
47 1 0.000150121 2.49991e-05 0.00059866 -0.000922493 1000.26 2.68237e-13 
48 1 0.000175078 2.50738e-05 -0.000227767 0.000295017 1001.95 2.12151e-13 
49 1 0.000199751 2.52211e-05 -0.00178705 0.00105152 1000.76 5.91306e-13 
50 1 0.000224977 2.50747e-05 -1.27821e-05 0.000197196 999.375 3.2581e-13 
51 1 0.000249842 2.53751e-05 -0.000953326 0.00256537 999.556 9.75781e-13 
52 1 0.000274979 2.5017e-05 -0.000752147 0.000127882 999.659 3.13692e-13 
53 1 0.000300018 2.52294e-05 -0.0001365 0.00194331 999.295 3.78687e-13 
54 1 0.000324969 2.49354e-05 9.98799e-05 -0.000767545 1002.13 2.75165e-13 
55 1 0.000349991 2.51066e-05 -0.000290097 0.000513516 1002.65 2.75169e-13 
56 1 0.000374959 2.4986e-05 -0.000454454 0.000248545 998.563 2.08373e-13 
57 1 0.000400173 2.5122e-05 0.000779995 0.000713631 998.031 4.38165e-13 
58 1 0.000425168 2.49711e-05 -0.000369004 -0.00064613 997.259 4.04609e-13 
59 1 0.000450208 2.51637e-05 0.00119959 -0.000577778 1000.95 5.75471e-13 
60 1 0.000474778 2.5142e-05 -0.000553874 0.00116349 1002.83 4.9709e-13 
61 1 0.000500107 2.51787e-05 0.00088956 0.00149608 1000.12 3.70397e-13 
62 1 0.000525084 2.50946e-05 -0.000759278 0.00150118 1000.02 3.50105e-13 
63 1 0.000549747 2.49224e-05 -0.00203905 0.000423198 997.978 4.39875e-13 
64 1 0.00057482 2.51692e-05 -0.00105514 0.00176448 995.855 4.62845e-13 
65 1 0.000600002 2.51893e-05 -0.00117073 0.000793949 995.791 4.18194e-13 
66 1 0.000624963 2.52017e-05 0.000374601 0.0023316 997.16 5.42326e-13 
67 1 0.000650121 2.49963e-05 0.00105209 -0.0011879 1000.32 3.26264e-13 
68 1 0.000674995 2.50481e-05 -0.000221901 0.00132605 1001.27 2.381e-13 
69 1 0.000700044 2.5291e-05 0.000370571 0.00237019 1002.21 5.66187e-13 
70 1 0.000724864 2.51206e-05 -3.07146e-05 0.00136198 1001.87 4.96995e-13 
71 1 0.000749793 2.53897e-05 -0.00163105 0.00212781 999.671 1.08659e-12 
72 1 0.000774986 2.50227e-05 -0.000448572 0.000409412 999.218 3.21855e-13 
73 1 0.000800019 2.52286e-05 -0.000191059 0.00185444 999.253 3.75781e-13 
74 1 0.000824961 2.49371e-05 -0.000605058 -0.0007678 1002.1 2.75768e-13 
75 1 0.000849991 2.51067e-05 -0.000512592 0.00056054 1002.62 2.74161e-13 
76 1 0.000874957 2.49819e-05 -0.000581332 -0.000229258 998.581 2.09419e-13 
77 1 0.000900178 2.51233e-05 0.00152752 0.000813332 998.037 4.48316e-13 
78 1 0.000925173 2.49772e-05 0.000309938 -0.000150996 997.279 4.01476e-13 
79 1 0.000950206 2.51677e-05 0.000825141 -4.91225e-05 1000.97 5.68099e-13 
80 1 0.000974776 2.51435e-05 -0.000669344 0.00130976 1002.89 5.00856e-13 
81 1 0.000999748 4.98947e-05 -0.0017365 -0.000290993 1001.56 4.39195e-13 
82 1 2.48373e-05 5.00931e-05 -0.000276249 0.000326894 999.9 2.82801e-13 
83 1 4.97154e-05 4.99125e-05 -0.00207493 -0.000930267 997.579 5.2968e-13 
84 1 7.51225e-05 5.01002e-05 0.000341898 -5.87701e-05 999.705 3.51312e-13 
85 1 0.000100073 5.00477e-05 0.00130397 -0.000232807 1003.81 2.68929e-13 
86 1 0.000124963 4.97244e-05 0.000274646 -0.00223897 1002.14 4.43171e-13 
87 1 0.000149814 5.00961e-05 -0.00064363 0.000110402 1001.38 3.60328e-13 
88 1 0.000175047 5.00373e-05 -0.000545971 0.000601784 1003.54 2.1652e-13 
89 1 0.000199928 5.00983e-05 -0.000248672 5.02539e-05 1002.94 2.98934e-13 
90 1 0.000225118 4.96501e-05 0.00043163 -0.00141972 1001.74 8.21231e-13 
91 1 0.000250105 5.01951e-05 0.000483925 0.000950504 1004.27 6.24758e-13 
92 1 0.000274976 4.96623e-05 0.000569258 -0.00193348 1001.23 7.12921e-13 
93 1 0.000299974 5.01053e-05 0.000195722 0.000449157 997.372 3.02377e-13 
94 1 0.000325372 4.98182e-05 0.0022021 -0.00150566 1001.1 6.84156e-13 
95 1 0.0003499 4.9842e-05 -0.00089063 -0.000983185 1002 3.13884e-13 
96 1 0.000375159 5.00991e-05 0.000790387 0.000737089 1001.27 3.22744e-13 
97 1 0.00039994 5.0052e-05 -0.0010376 -0.000159233 1002.07 3.02707e-13 
98 1 0.000424672 4.99815e-05 -0.000794225 0.000845073 998.045 5.933e-13 
99 1 0.000450109 4.98973e-05 0.000776941 -8.06963e-05 1000.03 3.72154e-13 
100 1 0.000474979 4.98701e-05 0.000154354 -0.000502921 1003.65 3.23258e-13 
101 1 0.000499749 4.98963e-05 -0.00170266 -4.41374e-05 1001.55 4.361e-13 
102 1 0.000524834 5.00936e-05 -0.000566493 0.000489313 999.923 2.85183e-13 
103 1 0.000549712 4.9912e-05 -0.00254224 -0.00109165 997.573 5.44672e-13 
104 1 0.000575126 5.01019e-05 0.000536219 0.000321152 999.651 3.57472e-13 
105 1 0.00060007 5.00492e-05 0.000876094 -0.000188722 1003.69 2.66222e-13 
106 1 0.000625001 4.97311e-05 0.000568652 -0.00224903 1002.47 4.85194e-13 
107 1 0.000649759 5.02126e-05 -0.00131415 0.0014917 1001.55 6.56139e-13 
108 1 0.000675027 4.99965e-05 -0.000595113 -0.000517946 1002.48 2.94936e-13 
109 1 0.000699974 4.99407e-05 0.000125277 -0.000834635 1003.83 3.80762e-13 
110 1 0.000725138 4.96277e-05 0.000216692 -0.00193598 1003.78 9.89204e-13 
111 1 0.000750105 5.01881e-05 0.00124724 0.000752008 1004.65 6.71759e-13 
112 1 0.000774976 4.96654e-05 0.000969754 -0.00159842 1001.14 7.16869e-13 
113 1 0.000799971 5.01041e-05 -2.6787e-05 0.000441709 997.354 3.05187e-13 
114 1 0.000825375 4.98187e-05 0.0025507 -0.00149296 1001.06 6.95626e-13 
115 1 0.000849905 4.9842e-05 -0.000262401 -0.000919991 1001.94 3.10751e-13 
116 1 0.000875154 5.0097e-05 0.000254492 0.000673636 1001.23 3.15708e-13 
117 1 0.000899942 5.00485e-05 -0.000817604 -0.000604982 1002.04 3.04705e-13 
118 1 0.000924671 4.99751e-05 -0.00105043 0.000224982 998.059 5.95281e-13 
119 1 0.000950114 4.9897e-05 0.00130372 -0.000381089 1000.09 3.80662e-13 
120 1 0.000974983 4.98699e-05 0.000345093 -0.000411991 1003.72 3.27813e-13 
121 1 0.000999819 7.50498e-05 -0.00147881 0.000865967 997.559 3.18077e-13 
122 1 2.50981e-05 7.49166e-05 0.000841618 -0.000301382 997.564 3.36736e-13 
123 1 5.02949e-05 7.49804e-05 0.00127874 0.000570469 997.592 5.76401e-13 
124 1 7.54497e-05 7.49955e-05 0.00293049 -0.000534403 1001.36 1.01985e-12 
125 1 9.99596e-05 7.49214e-05 0.000417411 -0.000504213 1002.84 2.87031e-13 
126 1 0.000125083 7.50248e-05 0.000545542 -0.000213332 998.073 2.18921e-13 
127 1 0.000150126 7.49504e-05 0.000878044 -0.000779723 998.651 3.12558e-13 
128 1 0.000175029 7.4827e-05 0.000271465 -6.62432e-05 1001.73 3.66768e-13 
129 1 0.000199918 7.49544e-05 -0.000239778 3.73533e-05 1001.08 2.26703e-13 
130 1 0.000224838 7.50224e-05 -0.000165216 -0.000147361 1000.1 3.85354e-13 
131 1 0.000250086 7.47617e-05 -0.000159344 -0.0013754 1001.18 4.7766e-13 
132 1 0.000274728 7.51628e-05 -0.00195505 0.000399662 998.347 6.11418e-13 
133 1 0.000300109 7.51026e-05 0.000826497 0.000312328 996.218 3.04584e-13 
134 1 0.000324917 7.49826e-05 -0.000516012 -5.63506e-05 997.706 2.4604e-13 
135 1 0.000349846 7.49721e-05 -0.000704775 -0.000594936 996.472 3.3429e-13 
136 1 0.000375044 7.47652e-05 0.00065001 -0.00159256 998.805 4.77178e-13 
137 1 0.00039986 7.51374e-05 -0.000939255 0.00188209 1002.89 4.31042e-13 
138 1 0.000424883 7.52832e-05 -0.000306092 0.00277947 1000.16 5.582e-13 
139 1 0.000449958 7.48999e-05 -0.000977952 -0.000560064 998.103 3.17084e-13 
140 1 0.000474965 7.51337e-05 -0.000186377 0.000741096 998.615 2.31944e-13 
141 1 0.000499821 7.50503e-05 -0.00133694 0.000783308 997.533 3.13694e-13 
142 1 0.0005251 7.49161e-05 0.000983486 -0.000501935 997.576 3.43399e-13 
143 1 0.000550299 7.49811e-05 0.0021599 0.000541715 997.612 5.93315e-13 
144 1 0.00057545 7.49965e-05 0.00304937 -0.000625295 1001.42 1.02327e-12 
145 1 0.000599957 7.4922e-05 -0.000136946 -0.000444659 1002.83 2.90121e-13 
146 1 0.000625083 7.50225e-05 0.000285612 -0.000618608 998.435 2.35264e-13 
147 1 0.000650147 7.49391e-05 0.0011179 -0.00144773 999.013 3.75259e-13 
148 1 0.000675092 7.4839e-05 0.000448611 9.61679e-05 1001.07 4.06285e-13 
149 1 0.000699867 7.49639e-05 -2.41336e-05 0.000401897 999.227 2.93026e-13 
150 1 0.000724804 7.49325e-05 -0.00100897 0.000391037 998.521 4.36129e-13 
151 1 0.000750088 7.47643e-05 0.000204348 -0.00139415 1000.78 5.10586e-13 
152 1 0.000774717 7.51651e-05 -0.00302806 0.000356362 998.364 6.5258e-13 
153 1 0.000800109 7.51055e-05 0.00092454 0.000783589 996.221 3.13336e-13 
154 1 0.000824913 7.49772e-05 -0.000743392 -0.000688042 997.66 2.53412e-13 
155 1 0.000849845 7.49792e-05 -0.000744227 4.02665e-06 996.428 3.3361e-13 
156 1 0.000875048 7.47666e-05 0.00101146 -0.00149021 998.784 4.78164e-13 
157 1 0.000899857 7.51362e-05 -0.00151121 0.00192179 1002.81 4.27329e-13 
158 1 0.000924881 7.52869e-05 -0.000456213 0.00301653 1000.06 5.73371e-13 
159 1 0.000949957 7.48936e-05 -0.000891528 -0.0014602 998.026 3.30711e-13 
160 1 0.00097496 7.51335e-05 -0.000569884 0.00118958 998.626 2.36561e-13 
161 1 2.81759e-07 0.000100077 0.00225802 0.000314243 999.699 5.9472e-13 
162 1 2.50819e-05 0.000100162 0.000493309 0.000204303 1002.31 4.11249e-13 
163 1 4.96619e-05 0.000100012 -0.00208536 -0.000703831 1001.47 6.87858e-13 
164 1 7.48882e-05 9.99093e-05 -0.00134754 -0.000252014 998.684 3.58651e-13 
165 1 9.98521e-05 0.000100013 -0.000472533 -0.000162585 998.759 2.73289e-13 
166 1 0.000124785 0.000100099 -0.000711319 0.000949481 996.617 4.48169e-13 
167 1 0.000150279 9.98611e-05 0.00209901 -0.000466615 998.784 4.87755e-13 
168 1 0.000175054 0.00010038 -0.000739556 0.000917305 1002.1 7.05954e-13 
169 1 0.000199962 9.99679e-05 -0.000384452 4.26153e-05 1002.06 2.22361e-13 
170 1 0.00022496 9.99713e-05 0.000229026 -0.000163492 1001.35 1.74627e-13 
171 1 0.000249688 9.98795e-05 -0.00112841 -0.000574435 999.16 4.02799e-13 
172 1 0.000275078 9.99415e-05 -0.000418195 -0.000344131 997.585 2.87847e-13 
173 1 0.000299997 0.000100072 -8.53287e-05 0.000732275 1000.59 1.96581e-13 
174 1 0.000325155 0.000100203 0.00106389 0.000214836 1002.56 3.76757e-13 
175 1 0.000350025 0.000100244 -8.1114e-05 0.00181822 998.615 4.1433e-13 
176 1 0.000375218 0.000100094 0.00166116 0.000745582 996.479 4.18542e-13 
177 1 0.000400125 9.99337e-05 0.000747394 -0.00180848 1000.59 3.41433e-13 
178 1 0.000425209 0.000100002 0.00161552 -0.000504206 1003.29 3.85759e-13 
179 1 0.00044992 9.99333e-05 -0.00036046 -0.00103872 1001.33 2.68178e-13 
180 1 0.000475122 0.00010013 0.000508989 0.000659629 999.737 2.87407e-13 
181 1 0.000500284 0.000100081 0.00267421 0.000748232 999.725 6.02049e-13 
182 1 0.000525081 0.000100166 0.00012093 0.000722876 1002.37 4.19316e-13 
183 1 0.000549656 0.000100008 -0.00262844 -0.00105084 1001.43 7.12718e-13 
184 1 0.000574889 9.99054e-05 -0.00117674 -0.00074789 998.684 3.61821e-13 
185 1 0.000599849 0.000100012 -0.00138482 7.51637e-05 998.789 2.75587e-13 
186 1 0.000624785 0.000100101 -0.000814316 0.000786964 996.601 4.53949e-13 
187 1 0.000650282 9.9863e-05 0.00245074 -0.000578533 998.869 5.16515e-13 
188 1 0.000675058 0.000100379 -0.000565032 0.00086675 1001.61 7.09204e-13 
189 1 0.000699994 9.99156e-05 0.000113576 -0.000793467 1000.77 2.72364e-13 
190 1 0.000725146 0.00010023 0.000198203 0.00143471 1001.35 6.79028e-13 
191 1 0.000749691 9.9862e-05 -0.00132957 -0.000988567 999.576 4.98283e-13 
192 1 0.000775082 9.99378e-05 -1.7921e-05 -0.000556879 997.319 3.1562e-13 
193 1 0.0008 0.000100073 0.000182461 0.000667886 1000.59 1.9933e-13 
194 1 0.000825148 0.000100204 0.000591973 0.000831306 1002.59 3.72771e-13 
195 1 0.000850029 0.000100244 0.000318735 0.00189183 998.643 4.11188e-13 
196 1 0.000875214 0.000100094 0.00142353 0.000877894 996.559 4.08539e-13 
197 1 0.000900124 9.99414e-05 0.000782066 -0.00104046 1000.63 3.24779e-13 
198 1 0.000925208 0.000100006 0.00161195 -0.000269246 1003.32 3.83714e-13 
199 1 0.000949915 9.9938e-05 -0.000688592 -0.000523738 1001.31 2.71134e-13 
200 1 0.000975131 0.000100129 0.00121649 0.000159168 999.704 3.00576e-13 
201 1 0.000999627 0.000125043 -0.00170748 0.000514121 999.74 7.85336e-13 
202 1 2.51676e-05 0.000124924 0.00113575 -0.000131667 1000.77 4.46215e-13 
203 1 4.98119e-05 0.000124806 -0.00179134 -0.0013304 999.645 6.11602e-13 
204 1 7.4878e-05 0.000125046 -0.000902449 -0.000821642 997.493 3.50668e-13 
205 1 0.000100127 0.000125218 0.000194751 0.000868152 1000.61 4.60633e-13 
206 1 0.000125138 0.000124913 0.00089129 -0.000960331 1000.51 2.84402e-13 
207 1 0.000150113 0.00012494 0.000119664 -0.00137238 1001.12 2.61818e-13 
208 1 0.000175001 0.000124969 0.000871311 0.000833581 1002.36 2.86274e-13 
209 1 0.000200045 0.000124917 -0.000832428 -0.000627025 999.453 2.79995e-13 
210 1 0.000225089 0.000124802 -1.91399e-05 -0.000364294 998.299 3.23962e-13 
211 1 0.000249939 0.000125019 -0.000904107 -0.000743635 996.68 2.85705e-13 
212 1 0.000274932 0.000125115 0.000547202 0.000827643 997.906 3.34235e-13 
213 1 0.000300042 0.000124744 0.000352909 -0.00161981 1001.94 3.98862e-13 
214 1 0.000324999 0.000124923 0.000439397 0.000103624 1005.35 2.86967e-13 
215 1 0.00034977 0.000125071 -0.00116234 0.000103134 1003.79 3.81365e-13 
216 1 0.000374818 0.000124897 -0.000458595 -0.000764762 998.008 4.00122e-13 
217 1 0.000400352 0.000125133 0.00272598 0.000802089 999.087 6.75205e-13 
218 1 0.000425171 0.000124917 0.000947649 -2.00626e-05 1001.66 3.36789e-13 
219 1 0.000450114 0.00012506 0.000705194 0.000760686 1001.62 2.30576e-13 
220 1 0.000474949 0.000124994 -0.00116187 -0.000450538 1001.35 2.87332e-13 
221 1 0.000499627 0.000125043 -0.00167245 0.000499931 999.825 7.86891e-13 
222 1 0.000525164 0.000124924 0.000858286 -0.000311071 1000.89 4.45783e-13 
223 1 0.00054981 0.000124807 -0.00201939 -0.000893504 999.62 6.15906e-13 
224 1 0.000574886 0.00012505 0.000141082 -0.000283821 997.456 3.42026e-13 
225 1 0.000600128 0.000125218 0.000547593 0.000948353 1000.68 4.58454e-13 
226 1 0.000625129 0.000124907 0.000198186 -0.00134326 1000.85 2.83707e-13 
227 1 0.000650113 0.000124948 -1.79612e-06 -0.000362271 1002.26 2.64982e-13 
228 1 0.00067489 0.000125059 -0.000197834 0.000486059 1003.39 2.671e-13 
229 1 0.000699894 0.000125043 -0.000196656 0.000782519 1000.77 2.50504e-13 
230 1 0.000724929 0.000124589 -0.000289071 -0.00235886 1000.49 8.02404e-13 
231 1 0.000749837 0.000125078 -0.000956211 0.000337127 997.089 4.07944e-13 
232 1 0.000774942 0.000125119 0.000553234 0.00126225 997.217 3.48706e-13 
233 1 0.000800039 0.000124747 6.36029e-05 -0.00160024 1001.94 3.94623e-13 
234 1 0.000825001 0.000124916 0.00064446 -0.000597194 1005.4 2.89937e-13 
235 1 0.000849772 0.000125074 -0.00119672 0.000277286 1003.81 3.76901e-13 
236 1 0.000874818 0.000124894 -0.000418281 -0.00125771 998.064 4.00667e-13 
237 1 0.000900352 0.00012513 0.00267567 0.000597921 999.132 6.71023e-13 
238 1 0.000925175 0.000124914 0.00103579 -0.000238282 1001.73 3.43422e-13 
239 1 0.000950112 0.000125057 9.97439e-05 0.000795066 1001.64 2.30923e-13 
240 1 0.000974945 0.000124994 -0.00132065 -0.000182914 1001.34 2.95963e-13 
241 1 1.45049e-07 0.00014997 0.00146818 -0.00121915 998.901 4.65138e-13 
242 1 2.49985e-05 0.000149998 -6.59549e-05 0.000295964 997.839 2.90717e-13 
243 1 5.0219e-05 0.000150305 0.00186355 0.00242394 999.365 7.61967e-13 
244 1 7.52532e-05 0.000150003 0.00255459 0.00178611 1001.9 5.68663e-13 
245 1 9.99352e-05 0.000149924 -0.00102234 0.000563379 1002.66 3.5268e-13 
246 1 0.000124887 0.000149688 -0.00112403 -0.00204096 999.131 5.3768e-13 
247 1 0.000149989 0.000150021 0.000789982 0.000961364 999.721 2.6323e-13 
248 1 0.000174959 0.000150134 -0.000421691 -0.000162536 1001.7 3.34935e-13 
249 1 0.000199812 0.000150164 -0.000274235 0.00133203 998.617 4.43783e-13 
250 1 0.000224911 0.000150169 -0.000774568 0.00101522 997.102 3.38647e-13 
251 1 0.000250138 0.00014999 0.000198197 -0.000446105 996.687 2.56669e-13 
252 1 0.000275386 0.000150041 0.00341434 -0.0001713 1000.61 6.61427e-13 
253 1 0.000299902 0.000150126 -0.000524828 0.000130457 1001.43 3.53445e-13 
254 1 0.000325058 0.000149747 0.00175264 -0.000938909 999.899 4.97263e-13 
255 1 0.000349805 0.000150165 -0.000692351 0.000951318 1001.16 4.50696e-13 
256 1 0.000374884 0.000149818 -0.000297116 -0.000688241 1000.48 3.21214e-13 
257 1 0.00039986 0.000149905 -0.00143898 -0.0010921 1002.02 3.93006e-13 
258 1 0.00042472 0.000150171 -0.0022504 0.000897687 1002.57 6.28432e-13 
259 1 0.000449957 0.000150008 -0.000307206 0.000462952 1002.23 2.50383e-13 
260 1 0.000474854 0.000150232 -0.000619168 0.00227349 1002.04 4.95863e-13 
261 1 0.00050015 0.000149966 0.00180193 -0.00150046 998.839 4.84538e-13 
262 1 0.000525002 0.000149989 0.000197068 -0.00044217 997.835 2.93387e-13 
263 1 0.000550217 0.000150308 0.00147512 0.00243721 999.362 7.67968e-13 
264 1 0.000575249 0.000149994 0.00235001 0.000882408 1001.86 5.30344e-13 
265 1 0.000599939 0.000149926 -0.00057328 0.000463986 1002.64 3.4048e-13 
266 1 0.000624899 0.000149687 -0.00097307 -0.00121398 999.174 5.20502e-13 
267 1 0.00064998 0.000149994 0.000906413 0.000681899 999.866 2.20223e-13 
268 1 0.000674993 0.000150024 0.000707379 -7.7879e-05 1001.65 1.42292e-13 
269 1 0.000700078 0.000150079 0.000134397 0.000399287 998.993 2.03567e-13 
270 1 0.000724964 0.000150147 -0.000228622 0.00110607 997.992 3.22348e-13 
271 1 0.000750151 0.000150001 0.000515374 -0.000437845 996.73 2.9131e-13 
272 1 0.000775397 0.000150037 0.00440087 -0.000486893 1000.54 7.23557e-13 
273 1 0.000799905 0.000150122 -0.000443632 -0.000309276 1001.53 3.54799e-13 
274 1 0.000825054 0.000149745 0.000908625 -0.00125383 999.866 4.91363e-13 
275 1 0.000849802 0.000150162 -0.00137157 0.000634827 1001.12 4.54173e-13 
276 1 0.000874885 0.000149815 -8.70253e-05 -0.000954937 1000.47 3.23413e-13 
277 1 0.000899862 0.000149908 -0.000916482 -0.000543892 1002.02 3.88623e-13 
278 1 0.000924716 0.000150173 -0.00257736 0.000899352 1002.56 6.47864e-13 
279 1 0.00094996 0.000150007 0.000172928 0.000127888 1002.2 2.51182e-13 
280 1 0.000974859 0.000150233 -0.000172313 0.00246236 1002.09 4.96772e-13 
281 1 8.15968e-08 0.000175044 -0.000975295 0.000273682 999.224 3.77166e-13 
282 1 2.50348e-05 0.000175075 0.000254282 -0.000100128 1002.37 2.67268e-13 
283 1 5.01819e-05 0.000174824 0.00147013 -0.00105153 1003.91 5.18918e-13 
284 1 7.50051e-05 0.000175131 0.000979493 -0.000674941 1004.24 4.36026e-13 
285 1 9.99052e-05 0.000175065 -0.000256257 -0.000449098 1001.77 3.57189e-13 
286 1 0.000124854 0.000175025 -0.000588917 0.000958847 996.312 3.04647e-13 
287 1 0.000150132 0.000174871 0.00179032 -0.000967712 997.919 3.78984e-13 
288 1 0.000174871 0.000174995 -0.000551493 0.000533112 999.986 2.40117e-13 
289 1 0.000200051 0.000174937 8.37675e-05 -0.000622885 998.034 2.38158e-13 
290 1 0.000225149 0.00017475 0.00125435 -0.00166903 998.451 4.83943e-13 
291 1 0.000250094 0.00017509 0.0012747 0.00179833 999.572 2.83095e-13 
292 1 0.000275194 0.000175147 -7.37356e-05 0.00208137 1002.43 3.57504e-13 
293 1 0.000299815 0.000174924 -0.00206172 -0.000275589 1000.42 4.5741e-13 
294 1 0.000324979 0.000175036 -0.000310965 0.000719692 995.392 2.87118e-13 
295 1 0.000350367 0.000175005 0.00165285 0.000654921 997.374 5.73339e-13 
296 1 0.000375174 0.000174849 0.000557109 -0.000940879 999.736 3.68786e-13 
297 1 0.000399965 0.000174939 -0.00049491 0.000411179 1000.36 2.37947e-13 
298 1 0.00042502 0.000174764 0.000811664 -0.00273113 999.413 4.51594e-13 
299 1 0.000449941 0.000174809 0.000431213 -0.0020473 999.294 3.46012e-13 
300 1 0.000475118 0.000174736 0.000614589 -0.00255851 999.043 4.75701e-13 
301 1 0.000500079 0.000175048 -0.00146115 0.000879704 999.159 3.92427e-13 
302 1 0.000525035 0.000175083 0.000373855 0.00065628 1002.34 2.7624e-13 
303 1 0.000550186 0.000174821 0.00156181 -0.00133267 1003.9 5.2905e-13 
304 1 0.000575004 0.000175135 0.000686632 -0.000413529 1004.19 4.26718e-13 
305 1 0.000599909 0.000175063 -0.000111573 -0.000895164 1001.68 3.50513e-13 
306 1 0.00062485 0.000175018 -0.000582189 0.000298063 996.117 3.04448e-13 
307 1 0.000650161 0.000174879 0.001346 -0.00109744 997.634 3.70606e-13 
308 1 0.000674886 0.000175026 -0.0013252 0.0011351 999.031 2.08365e-13 
309 1 0.000699994 0.00017493 0.000205238 -0.00107142 996.771 2.36867e-13 
310 1 0.000725189 0.000174716 0.000897312 -0.000930807 997.299 5.43907e-13 
311 1 0.000750097 0.000175092 0.00144346 0.00186265 999.013 2.91751e-13 
312 1 0.000775189 0.000175147 -0.000289807 0.00192835 1002.47 3.65106e-13 
313 1 0.00079981 0.000174924 -0.00211846 -0.000686428 1000.44 4.68863e-13 
314 1 0.000824976 0.000175038 -0.00102601 0.000548448 995.29 2.98207e-13 
315 1 0.000850373 0.000175006 0.002476 0.000741462 997.337 5.96089e-13 
316 1 0.000875166 0.000174846 -3.94501e-05 -0.00118166 999.755 3.70887e-13 
317 1 0.000899968 0.000174937 -0.000273893 -2.16623e-05 1000.35 2.37829e-13 
318 1 0.000925017 0.000174759 0.000544076 -0.00327636 999.405 4.65832e-13 
319 1 0.000949944 0.000174813 0.000454511 -0.00122519 999.297 3.39233e-13 
320 1 0.000975114 0.000174736 -9.77197e-05 -0.00242711 999.104 4.6806e-13 
321 1 2.04059e-07 0.000199996 0.00102476 -0.000309973 998.198 3.06876e-13 
322 1 2.52536e-05 0.00019997 0.000903649 0.000636361 1003.64 4.15527e-13 
323 1 4.96706e-05 0.00019989 -0.00266205 0.000123529 1002.47 6.81056e-13 
324 1 7.49657e-05 0.000199862 -0.00103496 -0.000884667 1000.2 2.65485e-13 
325 1 0.000100059 0.000199917 -0.000932569 0.000977196 1002.45 3.30878e-13 
326 1 0.000125033 0.000200193 -0.000259911 0.00255875 1003.26 5.01268e-13 
327 1 0.000150071 0.00020014 -0.000434073 0.00127037 1003.13 4.34866e-13 
328 1 0.000174945 0.000200086 -0.00110165 0.000367295 1000.1 2.55608e-13 
329 1 0.000200147 0.000200217 0.00183457 0.000830111 997.391 4.39903e-13 
330 1 0.0002251 0.00019999 0.000641062 0.000254764 998.609 2.37231e-13 
331 1 0.000250007 0.000200014 0.000411679 0.000291127 1000.3 1.7914e-13 
332 1 0.000274896 0.000200022 -0.0015077 -0.000987065 1000.58 2.74427e-13 
333 1 0.000300094 0.000200082 0.000424559 -4.36327e-05 999.413 1.93043e-13 
334 1 0.000325011 0.000200085 0.000176127 6.31855e-05 999.663 2.4703e-13 
335 1 0.000350129 0.000200085 0.000658937 -2.88908e-06 1002.74 3.51979e-13 
336 1 0.000375064 0.000200295 0.000417705 0.000419289 1001.06 6.28323e-13 
337 1 0.000400079 0.000199865 0.00102779 -5.33741e-05 997.275 3.55103e-13 
338 1 0.000425088 0.000200192 0.000443659 0.00211712 997.003 3.68318e-13 
339 1 0.000450052 0.000200162 -0.000263459 0.000472191 997.378 3.3489e-13 
340 1 0.000474909 0.000199954 -0.00127358 -0.000528934 996.53 2.88086e-13 
341 1 0.000500205 0.000199998 0.00145974 -0.000101993 998.223 3.09115e-13 
342 1 0.000525251 0.00019996 0.000531764 -0.000439625 1003.64 4.09888e-13 
343 1 0.000549672 0.000199892 -0.00235775 0.000237226 1002.48 6.80637e-13 
344 1 0.000574968 0.000199861 -0.000826405 -0.000900313 1000.18 2.60374e-13 
345 1 0.000600059 0.000199913 -0.000941991 0.000611362 1002.33 3.1837e-13 
346 1 0.000625041 0.000200183 5.34263e-05 0.00162666 1003.1 4.73762e-13 
347 1 0.000650076 0.000200142 0.000479861 0.00182245 1002.85 4.16628e-13 
348 1 0.000674864 0.000200013 -0.0010582 1.10529e-05 999.566 2.6639e-13 
349 1 0.000700082 0.000200217 0.00150103 0.00132651 997.666 4.44754e-13 
350 1 0.000725029 0.00020014 0.00145064 0.00144433 998.607 3.13517e-13 
351 1 0.000749997 0.00020002 -0.000551512 -0.00020944 999.486 1.8227e-13 
352 1 0.000774897 0.000200023 -0.00148242 -0.000411476 1000.31 2.61284e-13 
353 1 0.000800096 0.000200082 0.000503824 0.000606314 999.466 1.94461e-13 
354 1 0.000825009 0.000200088 2.66256e-05 0.000423059 999.568 2.49305e-13 
355 1 0.000850135 0.000200077 0.0014236 -0.000461752 1002.65 3.56276e-13 
356 1 0.000875073 0.000200296 0.00119443 0.000294888 1001.09 6.33879e-13 
357 1 0.000900076 0.000199868 0.00107586 0.00016728 997.279 3.53271e-13 
358 1 0.000925093 0.000200189 0.00112475 0.00209827 996.955 3.69296e-13 
359 1 0.000950049 0.000200163 -0.000418596 -6.10659e-06 997.388 3.35924e-13 
360 1 0.000974911 0.000199951 -0.00104767 -0.000968098 996.526 2.83644e-13 
361 1 9.15205e-08 0.000225168 0.000623997 0.00166171 1000.04 3.21045e-13 
362 1 2.48897e-05 0.000224919 -0.000886282 -0.00171998 1002.09 3.12182e-13 
363 1 5.0032e-05 0.000224891 -0.000745298 -0.000204736 999.293 3.02665e-13 
364 1 7.5113e-05 0.000225036 0.00103823 0.000297408 995.962 3.45823e-13 
365 1 0.000100115 0.000224806 0.00225861 -0.00252219 996.833 4.86883e-13 
366 1 0.000125122 0.000224581 0.000781021 -0.00272101 1001.36 8.82208e-13 
367 1 0.00014984 0.000224876 -0.00148909 -0.0012687 1003.15 5.63744e-13 
368 1 0.000174732 0.000224956 -0.00136004 -0.00103339 1002.39 5.47607e-13 
369 1 0.000199971 0.000224867 -0.000441955 -0.000248792 1001.96 3.75473e-13 
370 1 0.000224797 0.000225268 -0.000559479 0.0014406 1001.31 6.68685e-13 
371 1 0.000249984 0.000224919 -0.000655111 -0.00035025 1001.33 2.60109e-13 
372 1 0.000274981 0.00022514 6.33538e-05 0.000668037 1001.76 2.5354e-13 
373 1 0.000300142 0.000225044 0.00144824 0.00116436 1001.35 2.31115e-13 
374 1 0.000325249 0.000224836 0.00216587 -0.00149209 1003.87 5.02309e-13 
375 1 0.000349998 0.000224851 -0.00011251 0.000127891 1006.22 4.69982e-13 
376 1 0.000374545 0.000224986 -0.00238045 0.000454798 1002.65 1.05352e-12 
377 1 0.000399961 0.000225108 8.61127e-05 0.000926382 999.405 3.56928e-13 
378 1 0.000424757 0.000225135 -0.00110385 0.000535685 1000.12 5.13222e-13 
379 1 0.000450066 0.000224836 -0.000364249 0.000323218 999.579 3.35404e-13 
380 1 0.000474955 0.000224957 0.000577833 -0.000110921 998.333 2.24417e-13 
381 1 0.000500089 0.00022517 0.000551657 0.00210881 1000.04 3.23341e-13 
382 1 0.000524895 0.000224924 -0.000326428 -0.00110842 1002.06 2.95815e-13 
383 1 0.00055003 0.000224886 -0.000976551 -0.000294301 999.32 3.06575e-13 
384 1 0.000575114 0.000225042 0.00152687 0.000752659 996.061 3.4842e-13 
385 1 0.000600106 0.000224813 0.00142585 -0.00183076 996.853 4.38679e-13 
386 1 0.000625118 0.000224583 0.000612551 -0.00209848 1001.44 8.49039e-13 
387 1 0.000649836 0.000224874 -0.00184984 -0.00132486 1003.47 5.36442e-13 
388 1 0.00067485 0.00022513 -0.000761527 0.000825675 1002.05 3.7116e-13 
389 1 0.000700099 0.000224837 0.000591313 -0.00230048 1003.24 4.24204e-13 
390 1 0.000724743 0.000225187 -0.00191925 0.000449624 1003.33 6.82468e-13 
391 1 0.000749977 0.000224993 -0.000970468 -8.09271e-05 1001.47 2.18543e-13 
392 1 0.000774985 0.000225116 3.66823e-05 0.000638731 1001.7 2.21324e-13 
393 1 0.000800139 0.000225044 0.00110195 0.000870123 1001.44 2.2406e-13 
394 1 0.000825245 0.000224841 0.00190826 -0.00110776 1003.85 4.82005e-13 
395 1 0.000849997 0.000224852 -0.00034624 0.000328115 1006.13 4.67012e-13 
396 1 0.000874547 0.000224984 -0.00215597 0.000329886 1002.69 1.04969e-12 
397 1 0.000899959 0.00022511 -6.95883e-05 0.0014556 999.456 3.612e-13 
398 1 0.000924756 0.000225136 -0.00142543 0.000587763 1000.07 5.19155e-13 
399 1 0.000950073 0.000224835 0.000206061 0.000260189 999.559 3.34364e-13 
400 1 0.000974953 0.000224959 0.000281596 0.000407218 998.305 2.23384e-13 
401 1 8.69774e-08 0.000249904 0.00114182 -0.00144812 999.968 2.50442e-13 