ITEM: TIMESTEP
320
ITEM: NUMBER OF ATOMS
1600
ITEM: BOX BOUNDS pp pp pp
0 0.001
0 0.001
-1e-06 1e-06
ITEM: ATOMS id type x y vx vy c_rho_peratom c_e_peratom 
1 1 1.59476e-08 2.55625e-07 0.000760025 7.71196e-05 995.036 5.5219e-13 
2 1 2.5093e-05 0.000999586 0.00133912 -0.00103834 1000.34 8.40324e-13 
3 1 5.01622e-05 0.000999548 5.46315e-05 -0.00140053 1001.38 1.12226e-12 
4 1 7.50448e-05 0.00100008 0.000960976 0.00192272 997.499 5.34047e-13 
5 1 9.97224e-05 0.000999888 -0.000750609 2.76581e-05 991.249 8.55489e-13 
6 1 0.000125403 0.000999459 0.00117777 -0.0021648 994.991 1.40126e-12 
7 1 0.000150154 0.00100008 0.000393158 0.00115423 1004.37 5.44068e-13 
8 1 0.000174873 1.42089e-07 -0.00019995 0.000720852 1003.6 4.76617e-13 
9 1 0.000200204 0.000999978 0.00120256 0.000221224 1001.26 4.59908e-13 
10 1 0.000225157 0.000999882 0.000266011 -0.000843068 1000.54 6.6898e-13 
11 1 0.000250303 0.000999601 0.00165405 -0.00235536 996.397 1.30699e-12 
12 1 0.000275327 -6.31387e-09 -0.00153712 -0.000521019 995.049 7.80611e-13 
13 1 0.000300148 0.00100018 0.00204798 0.00269469 997.08 7.51923e-13 
14 1 0.000325405 0.00100005 0.000954503 0.0012201 1001.22 8.5666e-13 
15 1 0.000349698 1.47237e-07 -0.00131135 0.000310136 1003.02 7.57533e-13 
16 1 0.000374712 0.000999517 -0.00182113 -0.00148583 998.268 1.11262e-12 
17 1 0.000399521 2.12376e-07 -0.000588506 0.00073846 994.082 1.42313e-12 
18 1 0.00042493 1.02957e-07 5.1181e-05 0.000412255 992.611 6.12002e-13 
19 1 0.000450043 0.000999906 0.000351868 0.000486095 995.629 5.09609e-13 
20 1 0.000475038 0.000999698 0.00120277 -0.00239132 996.3 7.05354e-13 
21 1 0.000500061 2.85513e-07 0.000786857 0.000632655 994.943 5.866e-13 
22 1 0.000524981 0.000999577 0.000163613 -0.00104152 1000.01 8.08149e-13 
23 1 0.000550237 0.000999626 0.00208795 -0.0012807 1000.43 9.79712e-13 
24 1 0.000575025 0.000999884 0.000501107 -0.000658554 996.193 5.28851e-13 
25 1 0.00059983 0.000999891 0.00103311 0.00011029 991.023 7.86935e-13 
26 1 0.00062542 0.00099956 0.000315249 -0.000500627 995.4 1.25542e-12 
27 1 0.00065016 0.00100002 0.000912389 0.000383236 1004.99 5.52389e-13 
28 1 0.000674862 4.50153e-08 -0.000257412 -0.00100936 1002.67 5.86918e-13 
29 1 0.000699935 -5.27414e-08 3.23202e-05 -0.000668149 997.62 5.41985e-13 
30 1 0.000725225 0.000999953 0.00153182 -0.000268266 998.226 6.44799e-13 
31 1 0.000750336 0.00099954 0.00231834 -0.00272991 996.779 1.63204e-12 
32 1 0.000775373 -5.49404e-08 0.000298463 -0.00107846 996.943 8.04807e-13 
33 1 0.000800038 0.00100009 0.00035072 0.00163037 998.327 4.8587e-13 
34 1 0.000825457 0.00100002 0.0012705 0.000640953 1000.48 9.62187e-13 
35 1 0.000849828 1.51499e-07 -0.000111316 0.000571426 1004.01 6.97363e-13 
36 1 0.000874685 0.000999491 -0.00220337 -0.00247266 1000.91 1.32334e-12 
37 1 0.000899411 2.19324e-07 -0.00257261 0.00135392 995.255 1.82858e-12 
38 1 0.000924937 1.25086e-08 0.000824769 -0.000839843 993.563 6.35286e-13 
39 1 0.000950077 0.000999892 0.000327448 0.000201668 996.449 4.90195e-13 
40 1 0.000975073 0.000999693 0.00206294 -0.00284419 996.667 7.1166e-13 
41 1 1.51779e-07 2.5273e-05 0.000218543 0.00146671 999.341 5.7049e-13 
42 1 2.49808e-05 2.51295e-05 -0.000879286 0.000225287 999.343 5.03809e-13 
43 1 4.96479e-05 2.49733e-05 -0.000248864 0.000192052 996.991 6.32822e-13 
44 1 7.47236e-05 2.53082e-05 -0.000786614 0.00137544 995.159 7.46884e-13 
45 1 9.99254e-05 2.52048e-05 -0.0017254 -0.000458567 994.555 6.7879e-13 
46 1 0.000125089 2.53267e-05 0.00140008 0.00098852 997.292 1.03338e-12 
47 1 0.000150129 2.4903e-05 -0.000663022 -0.00130983 1002.68 4.93784e-13 
48 1 0.000175144 2.49985e-05 0.000917653 -0.00116945 1003.74 4.49079e-13 
49 1 0.000199585 2.5271e-05 -0.0022287 0.000220167 1001.6 9.60548e-13 
50 1 0.000224972 2.51169e-05 0.000191886 0.000778922 999.233 5.44033e-13 
51 1 0.000249678 2.56445e-05 -0.00228069 0.00297529 998.826 2.00744e-12 
52 1 0.000274948 2.50447e-05 0.000155846 5.47307e-05 998.986 5.67357e-13 
53 1 0.000299971 2.52647e-05 -0.000859125 -1.6196e-05 999.291 6.33046e-13 
54 1 0.00032506 2.49e-05 0.00129865 -0.000286013 1005.85 6.05797e-13 
55 1 0.000349939 2.52163e-05 -0.000475476 0.00183369 1005.97 6.55647e-13 
56 1 0.000375004 2.49834e-05 0.000678112 0.000601167 997.877 4.21868e-13 
57 1 0.000400265 2.52158e-05 0.000703451 0.000884689 996.963 7.2517e-13 
58 1 0.000425143 2.4903e-05 0.000386751 -0.00101507 995.627 5.72713e-13 
59 1 0.000450298 2.51262e-05 0.000834065 0.000425565 1000.08 7.94495e-13 
60 1 0.000474648 2.52105e-05 -0.00225502 0.000816031 1002.43 8.0811e-13 
61 1 0.000500153 2.53477e-05 0.00017228 0.00241831 999.652 7.08252e-13 
62 1 0.000525077 2.51958e-05 -0.000220848 0.00127495 1000.56 5.45291e-13 
63 1 0.000549528 2.5015e-05 -0.00241943 0.00128246 996.978 9.0908e-13 
64 1 0.000574748 2.53786e-05 -0.000725181 0.00241576 993.841 9.97944e-13 
65 1 0.000599863 2.52083e-05 -0.0023997 1.32944e-05 993.709 8.09839e-13 
66 1 0.000625078 2.53513e-05 0.00203573 0.00110045 997.229 1.03096e-12 
67 1 0.000650163 2.49156e-05 0.000119254 -0.000681414 1002.38 5.99913e-13 
68 1 0.000674945 2.51259e-05 -0.000132639 0.000718041 1001.23 4.22266e-13 
69 1 0.000700016 2.54716e-05 -0.000378876 0.00165797 1001.97 9.65912e-13 
70 1 0.000724859 2.52235e-05 7.29837e-05 0.00109432 1002.39 8.59257e-13 
71 1 0.000749601 2.56816e-05 -0.00237737 0.00339668 1000.08 2.45319e-12 
72 1 0.00077489 2.50778e-05 -0.000629167 0.00059148 998.949 7.20094e-13 
73 1 0.00079996 2.52389e-05 -0.00100937 -0.000680078 998.89 6.20488e-13 
74 1 0.00082496 2.48815e-05 0.000595925 -0.000820964 1004.33 5.3214e-13 
75 1 0.000849907 2.52196e-05 -0.00083021 0.00148681 1005.18 6.6465e-13 
76 1 0.00087499 2.49106e-05 0.00115689 -0.000957174 998.361 4.56853e-13 
77 1 0.000900314 2.51631e-05 0.00122854 0.00070056 997.199 8.49758e-13 
78 1 0.000925203 2.49587e-05 0.000316008 -7.94693e-05 996.251 5.65198e-13 
79 1 0.000950212 2.51623e-05 0.000332052 3.30429e-05 1000.93 6.89405e-13 
80 1 0.000974688 2.52316e-05 -0.0015549 0.00106224 1002.75 7.57961e-13 
81 1 0.000999623 4.98831e-05 -0.00117509 -0.000334778 1001.82 6.29794e-13 
82 1 2.47799e-05 5.01558e-05 -0.000558692 0.00115985 999.809 3.93525e-13 
83 1 4.9553e-05 4.98653e-05 -0.00185062 -0.000880783 996.81 8.25974e-13 
84 1 7.51359e-05 5.00646e-05 -0.000675679 -0.00100497 999.268 5.12038e-13 
85 1 0.00010017 5.00589e-05 0.00094871 0.00012671 1004.62 4.64485e-13 
86 1 0.000124941 4.95687e-05 -0.000833907 -0.00144403 1003.51 7.70779e-13 
87 1 0.000149716 5.00434e-05 -0.00124335 -0.00030061 1002.26 5.65455e-13 
88 1 0.000174997 5.01522e-05 -0.000299456 0.00134352 1003.53 4.39898e-13 
89 1 0.000199922 5.0011e-05 0.000322433 -0.000812323 1002.91 4.43594e-13 
90 1 0.000225147 4.95776e-05 0.000335699 -0.000853304 1002.81 9.79687e-13 
91 1 0.000250185 5.02268e-05 0.00186196 0.000517414 1006.48 8.96243e-13 
92 1 0.000275072 4.95178e-05 0.00146671 -0.00103798 1001.86 1.13218e-12 
93 1 0.00030001 5.02065e-05 0.000822239 0.00141189 996.299 5.1889e-13 
94 1 0.00032556 4.96874e-05 0.00292985 -0.00114422 1002.67 1.22551e-12 
95 1 0.000349819 4.97037e-05 -0.0011032 -0.00206762 1004.33 7.43011e-13 
96 1 0.000375119 5.02064e-05 -0.000906611 0.000799439 1002.67 6.21399e-13 
97 1 0.000399792 5.00782e-05 -0.0020836 -5.74783e-05 1002.66 5.81186e-13 
98 1 0.000424587 5.00484e-05 -0.00158493 0.000832547 996.011 7.57237e-13 
99 1 0.000450145 4.99443e-05 -0.000173053 0.00134678 998.969 5.31834e-13 
100 1 0.000475023 4.98422e-05 0.000436446 -0.00026443 1004.42 5.48523e-13 
101 1 0.000499573 4.99175e-05 -0.00159882 0.000387798 1003.24 7.5783e-13 
102 1 0.00052472 5.01501e-05 -0.00131091 0.000690126 1001.89 5.1748e-13 
103 1 0.000549465 4.98593e-05 -0.00247319 -0.00048551 997.793 1.15671e-12 
104 1 0.000575159 5.00288e-05 0.000143308 -0.00135254 999.581 6.36102e-13 
105 1 0.000600112 5.00651e-05 0.000492345 0.000577005 1004.78 4.50697e-13 
106 1 0.000625071 4.95922e-05 0.000650124 -0.00103646 1004.58 8.29018e-13 
107 1 0.000649591 5.02976e-05 -0.00220522 0.000812987 1004.57 1.12894e-12 
108 1 0.000674923 5.00887e-05 -0.0010026 0.00180506 1003.41 6.01556e-13 
109 1 0.000700013 4.98016e-05 0.000454305 -0.00182148 1004.39 7.24606e-13 
110 1 0.000725167 4.9501e-05 0.000954595 -0.00107766 1005.44 1.36074e-12 
111 1 0.000750234 5.01646e-05 0.00128113 -0.000702496 1007.56 1.15562e-12 
112 1 0.000775071 4.95128e-05 0.00104962 -0.00115479 1001.91 1.28049e-12 
113 1 0.000800003 5.02071e-05 0.000473356 0.00147258 996.003 5.79969e-13 
114 1 0.000825502 4.9718e-05 0.00117804 -0.000918218 1002.41 1.03653e-12 
115 1 0.000849867 4.97315e-05 -0.000184188 -0.00118461 1002.97 5.65329e-13 
116 1 0.000875128 5.01269e-05 -0.000854577 0.000367419 1001 4.98909e-13 
117 1 0.000899822 5.00325e-05 -0.00166232 0.000296431 1001.41 5.58959e-13 
118 1 0.000924547 4.99598e-05 -0.0013844 -0.000287987 995.584 8.67311e-13 
119 1 0.000950278 4.98589e-05 0.00143565 -0.000241622 999.762 8.28138e-13 
120 1 0.000974977 4.98509e-05 -0.000182472 -0.000259831 1004.97 5.0731e-13 
121 1 0.000999721 7.51152e-05 -0.00103219 0.000320587 997.139 5.30559e-13 
122 1 2.51976e-05 7.49237e-05 0.00116686 9.45397e-05 997.817 5.43207e-13 
123 1 5.03895e-05 7.50816e-05 0.000739864 0.00179293 997.707 8.9344e-13 
124 1 7.56479e-05 7.493e-05 0.0019904 -0.000668166 1000.59 1.40143e-12 
125 1 0.000100066 7.49071e-05 0.00217734 0.000561878 1002.44 4.31661e-13 
126 1 0.000125189 7.50488e-05 0.00144897 0.000846058 997.594 3.6655e-13 
127 1 0.000150196 7.49245e-05 0.000925559 -6.05534e-05 999.245 4.34054e-13 
128 1 0.000175078 7.47973e-05 0.000682262 -0.000706161 1002.5 4.81704e-13 
129 1 0.000199941 7.50129e-05 5.56877e-05 0.000714627 1000.57 3.0774e-13 
130 1 0.000224817 7.49555e-05 -0.000268958 -0.000591376 1000.17 4.50995e-13 
131 1 0.000250083 7.47177e-05 0.000246187 0.000268427 1002.47 5.74478e-13 
132 1 0.000274588 7.5169e-05 -0.001769 -0.000358542 997.848 8.88657e-13 
133 1 0.000300112 7.5166e-05 -0.000794534 0.000735122 994.289 4.71464e-13 
134 1 0.000324879 7.49655e-05 -0.00058389 -0.000758334 995.857 4.20524e-13 
135 1 0.000349813 7.49341e-05 2.79465e-06 -0.000509424 993.68 6.08096e-13 
136 1 0.000375226 7.45995e-05 0.00274609 -0.00113934 998.626 1.27482e-12 
137 1 0.000399792 7.52961e-05 -0.000349566 0.00187609 1005.46 8.39051e-13 
138 1 0.000424901 7.54607e-05 0.000475568 0.00144059 1002.42 9.35371e-13 
139 1 0.000449807 7.48602e-05 -0.00276549 -0.000424013 999.124 6.44777e-13 
140 1 0.000474973 7.52382e-05 0.00027472 0.000631044 998.055 4.13586e-13 
141 1 0.000499805 7.51078e-05 2.87461e-05 4.6682e-05 997.05 4.89616e-13 
142 1 0.000525225 7.48353e-05 0.00189385 -0.000168821 997.933 7.30019e-13 
143 1 0.000550505 7.50582e-05 0.00207021 0.00121755 997.317 1.22547e-12 
144 1 0.000575671 7.494e-05 0.00146697 -0.000499353 1001.68 1.52383e-12 
145 1 0.00060002 7.49208e-05 0.00121592 -7.58445e-05 1003.54 4.21913e-13 
146 1 0.000625143 7.50167e-05 0.00115653 0.000307572 998.239 4.04951e-13 
147 1 0.000650219 7.48244e-05 0.000868875 -0.00123658 1000.11 6.67404e-13 
148 1 0.000675166 7.47651e-05 0.000606631 -0.00191676 1001.85 6.32641e-13 
149 1 0.000699908 7.49644e-05 0.000500991 -0.000237089 998.149 4.01958e-13 
150 1 0.000724788 7.50146e-05 -2.83392e-05 0.00129529 997.985 6.0088e-13 
151 1 0.000750147 7.46796e-05 0.0011212 -0.000836943 1001.93 8.06749e-13 
152 1 0.000774429 7.52472e-05 -0.00295239 0.000325608 997.701 1.60444e-12 
153 1 0.000800198 7.51347e-05 0.000968957 -0.000349694 994.106 5.73084e-13 
154 1 0.000824931 7.49377e-05 0.000560898 0.000125081 996.594 4.20598e-13 
155 1 0.000849773 7.49784e-05 -0.00172006 -0.000288739 993.925 6.16486e-13 
156 1 0.000875217 7.46746e-05 0.00219299 -0.000724243 998.089 1.01978e-12 
157 1 0.000899779 7.53426e-05 -0.000615858 0.00192956 1004.33 9.02756e-13 
158 1 0.000924854 7.55135e-05 -0.000304472 0.00216174 1000.73 1.14606e-12 
159 1 0.00094983 7.47678e-05 -0.00191203 -0.000827098 998.224 7.97986e-13 
160 1 0.000974894 7.53012e-05 -0.000618514 0.00180931 998.968 6.05737e-13 
161 1 4.31524e-07 0.000100114 0.0020444 0.00127981 999.867 8.81691e-13 
162 1 2.51263e-05 0.000100165 0.000421904 0.000336946 1004.39 5.69959e-13 
163 1 4.95208e-05 9.9913e-05 -0.00127797 -0.0013832 1002.69 1.03209e-12 
164 1 7.48044e-05 9.98472e-05 -0.00100668 -0.000966854 997.09 5.54636e-13 
165 1 9.98059e-05 0.000100021 -0.000820296 0.000748982 997.378 4.15382e-13 
166 1 0.000124801 0.00010016 0.000501549 0.000403661 996.01 6.11623e-13 
167 1 0.00015045 9.97991e-05 0.00180869 -0.000475887 1000.14 7.67133e-13 
168 1 0.000174983 0.00010043 3.6062e-05 0.000433568 1004.14 8.80694e-13 
169 1 0.000199909 0.000100006 -6.93016e-05 0.000346087 1002.24 3.02049e-13 
170 1 0.000224972 9.99655e-05 0.000309332 0.000246282 1001.32 2.22464e-13 
171 1 0.000249653 9.97858e-05 -0.000678427 -0.00144328 999.393 5.15983e-13 
172 1 0.000275072 9.99247e-05 -0.000356353 0.000399394 997.032 4.04653e-13 
173 1 0.00030002 0.000100195 0.000581923 0.00151785 1001.04 4.31824e-13 
174 1 0.000325196 0.000100252 -0.000291689 0.00149834 1003.46 5.40365e-13 
175 1 0.000349964 0.000100443 -0.000358259 0.00258905 997.271 9.07883e-13 
176 1 0.00037528 0.000100176 0.00064367 0.00187831 994.577 7.22852e-13 
177 1 0.000400182 9.98045e-05 0.000614997 -0.00184479 1001.69 6.96059e-13 
178 1 0.000425324 9.99599e-05 0.0011476 -0.000630437 1006.16 6.55585e-13 
179 1 0.000449912 9.97937e-05 0.000527048 -0.00214298 1002.94 5.5884e-13 
180 1 0.000475143 0.000100198 0.000203157 0.00129474 999.153 4.67465e-13 
181 1 0.00050049 0.000100113 0.00258699 0.000684958 999.864 1.01714e-12 
182 1 0.000525044 0.000100236 -0.000981527 0.000347443 1004.62 7.12308e-13 
183 1 0.000549497 9.9905e-05 -0.00093125 -0.00115375 1002.21 1.16476e-12 
184 1 0.000574809 9.98445e-05 -0.000721745 -0.000390292 997.885 5.68534e-13 
185 1 0.000599779 9.99945e-05 -0.00168835 0.000305897 998.583 4.16347e-13 
186 1 0.000624678 0.00010015 -0.00208011 0.000200955 994.513 7.73339e-13 
187 1 0.000650517 9.97715e-05 0.00241565 -0.00100767 998.063 1.09268e-12 
188 1 0.000674953 0.000100464 -0.00070812 0.0014709 1002.52 1.03499e-12 
189 1 0.000699995 9.98778e-05 0.000317863 0.000120123 1001.28 3.96398e-13 
190 1 0.000725131 0.000100391 -0.000643442 0.00181045 1002.86 1.04361e-12 
191 1 0.000749596 9.97349e-05 -0.00141812 -0.00153486 1000.21 8.39196e-13 
192 1 0.000775135 9.99022e-05 0.00100761 -0.000676992 996.213 5.61763e-13 
193 1 0.000800064 0.000100143 0.000789889 0.00141543 1000.73 4.21806e-13 
194 1 0.000825184 0.000100202 -2.63025e-05 0.000326425 1003.61 5.24373e-13 
195 1 0.000850072 0.000100489 0.00129757 0.00217333 997.727 1.00494e-12 
196 1 0.000875262 0.000100131 -0.000285792 0.00015736 995.596 6.19353e-13 
197 1 0.000900169 9.98637e-05 0.000268048 -0.000513674 1002.18 6.02382e-13 
198 1 0.000925344 9.995e-05 0.00150267 -0.000865675 1005.47 7.45295e-13 
199 1 0.000949864 9.98571e-05 -0.000321872 -0.0014773 1001.45 5.52402e-13 
200 1 0.000975291 0.00010006 0.00182148 -0.00129723 998.757 7.26389e-13 
201 1 0.000999539 0.00012512 -0.00156481 0.0007348 998.92 1.00605e-12 
202 1 2.5229e-05 0.000124927 0.000879874 0.000553263 1000.77 6.12903e-13 
203 1 4.96635e-05 0.000124765 -0.00132238 -0.000282704 998.166 9.98141e-13 
204 1 7.48187e-05 0.000125042 -0.000712891 0.0002976 995.492 5.59647e-13 
205 1 0.00010012 0.000125301 -0.000115516 0.00119813 1000.67 6.38345e-13 
206 1 0.000125117 0.00012481 -0.000796827 -0.00140286 999.964 4.37097e-13 
207 1 0.000150146 0.000124802 0.000410712 -0.00174905 1001.34 4.83544e-13 
208 1 0.000175028 0.000125065 -0.000123471 0.00143243 1003.74 4.72645e-13 
209 1 0.000199973 0.000124849 -0.000512494 -0.000379124 999.2 4.61945e-13 
210 1 0.000225134 0.000124731 0.00013831 -0.00123281 996.847 5.17256e-13 
211 1 0.000249871 0.000124964 0.000108364 -0.000679627 994.562 4.93579e-13 
212 1 0.000274922 0.000125232 0.000189377 0.000417009 997.146 6.36614e-13 
213 1 0.000300025 0.000124576 -0.000715662 -0.00201506 1002.89 7.93867e-13 
214 1 0.000324973 0.00012492 -0.000589741 9.27571e-05 1007.27 4.69427e-13 
215 1 0.000349742 0.000125042 -3.3192e-05 -0.000732612 1005.65 5.52779e-13 
216 1 0.000374775 0.000124843 -3.56888e-05 -0.00054769 996.665 5.99492e-13 
217 1 0.000400619 0.000125164 0.00308783 2.13671e-05 998.585 1.28162e-12 
218 1 0.000425227 0.000124925 0.000529899 0.000740825 1002.6 5.02969e-13 
219 1 0.000450162 0.00012511 0.000918038 0.000806571 1001.67 3.92358e-13 
220 1 0.000474861 0.000124907 -0.00101175 -0.000584388 1000.3 5.80174e-13 
221 1 0.000499537 0.000125124 -0.00163781 0.000846075 999.82 1.06626e-12 
222 1 0.000525242 0.000124912 0.00102467 -0.000124082 1002.85 6.91288e-13 
223 1 0.000549598 0.000124739 -0.00228452 -0.000729692 998.549 1.18655e-12 
224 1 0.000574866 0.000125018 -0.000427769 -0.000433851 995.577 5.49552e-13 
225 1 0.000600113 0.000125298 0.000517372 0.00090314 1001.29 6.34191e-13 
226 1 0.000625081 0.000124831 -0.00109423 -0.000670538 999.478 4.28419e-13 
227 1 0.000650119 0.00012492 0.000606736 -0.000808136 1001.41 3.84444e-13 
228 1 0.000674906 0.000125085 0.000604295 0.000228155 1004.45 3.8207e-13 
229 1 0.000699834 0.000125052 -0.0014553 -0.000176924 1001.48 4.17337e-13 
230 1 0.000724957 0.000124378 0.000569762 -0.00230304 1000.83 1.32743e-12 
231 1 0.000749761 0.000125099 -0.000595311 -6.02262e-05 994.7 7.08763e-13 
232 1 0.000774963 0.000125166 0.000509251 5.09362e-05 996.059 6.08705e-13 
233 1 0.000800038 0.000124615 -0.000591 -0.000757246 1003.73 6.89863e-13 
234 1 0.000824966 0.000124946 -0.000892458 0.000604239 1008.11 5.36433e-13 
235 1 0.00084965 0.000125055 -0.00093979 0.000113564 1005.75 6.88785e-13 
236 1 0.000874831 0.000124852 0.000892928 4.33564e-05 997.459 5.63108e-13 
237 1 0.000900544 0.000125246 0.00196729 0.00173611 999.849 1.1341e-12 
238 1 0.000925224 0.000124902 0.000724804 2.16962e-05 1003.26 5.22193e-13 
239 1 0.000950116 0.000125199 6.62898e-05 0.00223443 1001.27 4.97478e-13 
240 1 0.000974784 0.000124971 -0.00242236 0.000277893 1000.13 6.54885e-13 
241 1 1.84917e-07 0.000149875 1.0024e-05 -0.00164117 998.906 7.02561e-13 
242 1 2.49948e-05 0.000150024 -0.000228036 -1.68989e-05 996.725 4.75657e-13 
243 1 5.04189e-05 0.00015051 0.00249214 0.00203615 999.108 1.48606e-12 
244 1 7.54526e-05 0.000150081 0.00279709 0.000735217 1004.37 1.05155e-12 
245 1 9.98745e-05 0.000149948 -0.00120374 -0.000873498 1004.87 6.06106e-13 
246 1 0.000124818 0.000149549 -0.00114094 -0.00113801 996.982 8.4053e-13 
247 1 0.000150044 0.000150052 0.000127153 -0.000136078 998.383 4.5246e-13 
248 1 0.000174918 0.000150164 -0.00151306 0.000221914 1003.22 4.8447e-13 
249 1 0.000199775 0.000150255 -0.000440335 0.000489007 999.002 6.21892e-13 
250 1 0.000224756 0.000150322 -0.00239287 0.00168302 995.792 8.95952e-13 
251 1 0.000250094 0.000149911 -0.00120817 -0.000922959 993.639 6.04554e-13 
252 1 0.000275657 0.000150028 0.00186161 0.000797749 999.907 1.4423e-12 
253 1 0.000299835 0.000150213 -0.000511299 0.00117192 1001.08 6.57956e-13 
254 1 0.000325245 0.000149666 0.00223416 -0.00135096 998.993 9.20091e-13 
255 1 0.000349764 0.000150201 -1.51765e-05 -0.000756092 1002.11 5.99688e-13 
256 1 0.00037485 0.000149795 -0.000882375 -0.000285623 1000.78 4.40566e-13 
257 1 0.000399826 0.000149866 -0.00034548 0.000378311 1003.36 6.07435e-13 
258 1 0.000424536 0.000150239 -0.00157284 0.000516718 1004.98 1.12732e-12 
259 1 0.000449927 0.000150072 -0.000397717 0.000233224 1003.91 4.75106e-13 
260 1 0.000474726 0.000150408 -0.00193686 0.00143541 1002.63 1.05062e-12 
261 1 0.000500312 0.000149867 0.00168268 -0.00105014 998.263 9.0349e-13 
262 1 0.000525017 0.000149912 0.000148207 -0.00128106 997.428 5.04495e-13 
263 1 0.00055041 0.000150483 0.00209476 0.00193223 998.62 1.43745e-12 
264 1 0.000575462 0.000150044 0.00287739 0.0001305 1003.56 1.02141e-12 
265 1 0.000599878 0.000149917 -0.000542332 -0.000274499 1005.17 5.43542e-13 
266 1 0.000624879 0.000149625 0.00021181 -0.000537449 997.803 6.48078e-13 
267 1 0.000650048 0.000150018 7.90065e-05 0.000428605 998.407 3.49653e-13 
268 1 0.000675053 0.000149987 0.000869718 0.000155096 1002.35 2.77719e-13 
269 1 0.000700112 0.000150128 0.000590738 0.000912967 999.307 3.41024e-13 
270 1 0.000724855 0.000150285 -0.00171263 0.00192853 996.493 8.04308e-13 
271 1 0.000750155 0.000149907 -0.000543946 -0.000938697 992.537 7.15402e-13 
272 1 0.000775751 0.000150034 0.00333858 0.000861268 999.987 1.78738e-12 
273 1 0.000799842 0.000150143 -0.000103568 -0.000166108 1002.93 6.69456e-13 
274 1 0.000825228 0.000149652 0.00184663 -0.00125039 1000.22 9.90741e-13 
275 1 0.000849688 0.000150204 -0.0012681 0.000170622 1001.92 7.47895e-13 
276 1 0.000874858 0.00014973 -0.000624158 -0.00114593 1000.7 4.83731e-13 
277 1 0.000899874 0.000149803 0.000541957 -0.00115495 1004.26 6.32831e-13 
278 1 0.000924568 0.000150244 -0.00128588 0.000755007 1005.93 1.13433e-12 
279 1 0.000949969 0.000150091 -0.000369026 0.00110087 1005.52 5.24736e-13 
280 1 0.000974815 0.000150399 -0.000755364 0.000994729 1004.86 8.98359e-13 
281 1 -5.6522e-08 0.00017503 -0.00169306 0.000522571 998.575 6.55084e-13 
282 1 2.50707e-05 0.000175042 0.000349984 -0.000573979 1001.87 4.38582e-13 
283 1 5.02874e-05 0.00017468 0.000714721 -0.00227371 1005.17 9.77094e-13 
284 1 7.51237e-05 0.000175147 0.00115461 0.000669309 1007.21 8.09344e-13 
285 1 9.98774e-05 0.000175016 -0.000788674 -0.000251487 1002.5 5.91482e-13 
286 1 0.000124839 0.000175027 0.000843884 -0.000786218 992.14 5.91471e-13 
287 1 0.000150355 0.00017479 0.00340173 -0.000617613 995.968 9.71751e-13 
288 1 0.000174874 0.000175048 0.00136788 0.000127294 999.75 4.22367e-13 
289 1 0.000200122 0.000174824 0.00168582 -0.000949547 996.596 6.08225e-13 
290 1 0.000225324 0.000174682 0.00241166 0.000143037 998.119 8.99095e-13 
291 1 0.000250202 0.000175229 0.00130119 0.00125585 1000.45 6.63631e-13 
292 1 0.000275124 0.000175275 -0.000114218 0.000566126 1004.3 7.23283e-13 
293 1 0.000299718 0.000174862 -0.000616984 -0.00122633 999.991 7.40803e-13 
294 1 0.000324968 0.000175085 -0.000166098 0.000989977 993.271 4.73926e-13 
295 1 0.000350491 0.000175029 0.00102316 0.000209401 997.51 7.31969e-13 
296 1 0.000375198 0.000174771 -4.3225e-05 -0.000631899 1000.71 4.87077e-13 
297 1 0.000399937 0.000174971 -0.000389362 0.000549505 1000.91 4.31423e-13 
298 1 0.000425059 0.000174539 0.000372449 -0.00246141 999.182 1.02484e-12 
299 1 0.000449984 0.000174655 -0.000213015 -0.000124887 999.728 7.35709e-13 
300 1 0.000475262 0.000174638 0.00172258 -0.000826678 1000.27 8.8333e-13 
301 1 0.000499978 0.000175082 -0.000972909 0.000176786 998.83 6.66194e-13 
302 1 0.000525037 0.00017505 0.000522319 -0.00148236 1001.99 4.31137e-13 
303 1 0.000550272 0.000174755 0.000578261 0.000164275 1004.29 7.68741e-13 
304 1 0.000575048 0.000175118 -0.00106302 9.33576e-05 1005.99 6.40601e-13 
305 1 0.000599917 0.000174978 0.000290307 -0.00126864 1002.51 5.06237e-13 
306 1 0.000624777 0.00017504 -0.00115133 0.000360264 993.063 5.60153e-13 
307 1 0.000650331 0.000174755 0.00222859 -0.00216652 995.722 8.77953e-13 
308 1 0.000674819 0.000175179 -0.000500475 0.000923544 997.962 6.15592e-13 
309 1 0.000700059 0.000174786 0.00110677 -0.00164067 994.524 7.21559e-13 
310 1 0.000725289 0.000174598 0.00125303 -0.00200303 995.394 9.95746e-13 
311 1 0.000750244 0.000175287 0.00213279 0.00215567 998.281 8.49468e-13 
312 1 0.000775171 0.000175276 0.000146981 0.00130262 1003.6 7.14339e-13 
313 1 0.000799664 0.00017483 -0.00160513 -0.00131023 1000.34 9.25691e-13 
314 1 0.00082487 0.000175022 -0.000974207 -0.000905547 992.935 6.53317e-13 
315 1 0.000850602 0.000175059 0.00213166 0.00016644 996.421 1.1287e-12 
316 1 0.000875137 0.000174734 -0.000991264 -0.00106265 999.54 5.91324e-13 
317 1 0.000899953 0.000174939 -0.000117877 -0.00021988 999.787 4.76107e-13 
318 1 0.000925014 0.000174448 7.07749e-05 -0.00260956 999.498 1.38753e-12 
319 1 0.00094999 0.000174734 -1.07749e-05 -0.000434771 1001.64 6.23162e-13 
320 1 0.000975125 0.00017455 0.000450871 -0.00184889 1001.58 8.59102e-13 
321 1 2.79599e-07 0.000199996 0.000344242 -0.000413756 996.267 5.35348e-13 
322 1 2.53436e-05 0.00019996 0.00131283 -0.00057168 1004.46 6.7343e-13 
323 1 4.94286e-05 0.000199908 -0.00227314 0.000761416 1002.69 1.33372e-12 
324 1 7.48486e-05 0.000199739 -0.000846118 -0.00150449 999.655 7.43027e-13 
325 1 9.99336e-05 0.000200049 -0.000534005 0.00118757 1003.67 8.54752e-13 
326 1 0.000124998 0.000200426 -0.000159681 0.00237589 1005.3 1.24983e-12 
327 1 0.000149982 0.000200247 -0.0020772 0.00134577 1005.17 8.9608e-13 
328 1 0.000174853 0.000200097 -0.000820198 0.000503447 999.285 5.45806e-13 
329 1 0.000200295 0.000200418 0.000888588 0.00315138 995.069 1.08729e-12 
330 1 0.000225167 0.000200033 0.000744496 0.000145484 999.096 3.9542e-13 
331 1 0.00025003 0.000200096 0.000373111 0.000778232 1003.48 3.80127e-13 
332 1 0.000274762 0.000199938 -0.00191572 -0.00109336 1002.26 6.12565e-13 
333 1 0.000300099 0.000200054 -0.000133873 -0.000182007 997.912 3.14531e-13 
334 1 0.000325021 0.000200108 0.000138132 0.000278475 998.706 3.61752e-13 
335 1 0.000350256 0.000200091 0.00161948 -8.47711e-05 1003.65 5.58381e-13 
336 1 0.000375096 0.000200293 0.000156004 -0.000629239 1000.57 7.63802e-13 
337 1 0.000400202 0.000199736 0.00138441 -0.00285121 995.365 7.56922e-13 
338 1 0.000425108 0.000200358 -9.51021e-05 0.00107555 994.542 8.10608e-13 
339 1 0.000450102 0.000200141 0.00140521 -0.000364503 994.685 5.39087e-13 
340 1 0.000474819 0.000199927 -0.000140607 3.10293e-05 994.826 5.30345e-13 
341 1 0.000500282 0.000199956 0.000417288 -0.000844284 997.066 5.39385e-13 
342 1 0.000525296 0.000199966 0.00021499 0.00118132 1004.45 5.97949e-13 
343 1 0.000549494 0.00019988 -0.00209057 -0.00081863 1002.54 1.06978e-12 
344 1 0.000574915 0.000199833 0.00052813 -0.00034906 999.049 4.57582e-13 
345 1 0.000599996 0.000199953 -5.78921e-05 0.000551692 1002.85 5.04606e-13 
346 1 0.000625039 0.000200351 6.66886e-05 0.00211795 1004.58 9.53089e-13 
347 1 0.000650123 0.000200316 0.000807537 0.00262224 1004.63 9.55176e-13 
348 1 0.000674766 0.000200021 -0.0011157 3.77175e-05 999.52 6.11172e-13 
349 1 0.000700163 0.000200431 0.000710324 0.00322635 996.777 1.13506e-12 
350 1 0.000725147 0.000200323 0.000869921 0.00189993 999.92 8.76732e-13 
351 1 0.000749992 0.000200064 0.000133862 0.00109808 1002.68 4.03288e-13 
352 1 0.000774782 0.000200072 -0.0009089 0.0011699 1001.71 5.32039e-13 
353 1 0.000800179 0.000200105 0.00088901 0.000378869 997.928 3.74499e-13 
354 1 0.000825036 0.000200093 0.000234339 -0.000465156 998.394 3.92631e-13 
355 1 0.000850196 0.000200063 0.00054093 0.000446268 1002.68 5.19379e-13 
356 1 0.000875211 0.000200376 0.00202514 0.00152632 1000.18 9.11448e-13 
357 1 0.000900127 0.000199768 -4.97259e-05 -0.0021151 994.689 7.66128e-13 
358 1 0.000925224 0.000200395 0.00189904 0.00183646 994.249 1.14645e-12 
359 1 0.000949992 0.000200035 -0.000381045 -0.00195586 994.845 7.12462e-13 
360 1 0.000974807 0.000199856 -0.00127864 -0.000826823 993.904 6.13489e-13 
361 1 1.40022e-07 0.000225301 0.000620295 0.00114574 1000.58 6.38233e-13 
362 1 2.49057e-05 0.000224793 0.000553046 -0.000741173 1004.39 6.15574e-13 
363 1 5.00086e-05 0.000224965 -0.000279302 0.00134688 999.452 5.62906e-13 
364 1 7.52436e-05 0.000225048 0.00105145 0.000607319 993.454 8.13975e-13 
365 1 0.000100308 0.000224579 0.00216664 -0.00206785 996.293 1.56e-12 
366 1 0.000125249 0.000224374 0.00139767 -0.00217087 1005.21 1.85862e-12 
367 1 0.000149635 0.000224842 -0.0028078 0.000432904 1006.91 1.25125e-12 
368 1 0.000174558 0.000224843 -0.00179248 -0.00178509 1003.88 1.04391e-12 
369 1 0.000199952 0.000224865 6.50422e-05 0.00067513 1002.76 5.71322e-13 
370 1 0.000224738 0.000225339 -0.00145266 0.00064755 1002.14 8.6039e-13 
371 1 0.000249989 0.000224835 0.00114047 -0.00124688 1002.56 4.47067e-13 
372 1 0.000275015 0.000225139 0.00061393 -0.000685349 1001.98 3.75046e-13 
373 1 0.000300221 0.000225168 0.000504991 0.00160797 1000.75 5.10147e-13 
374 1 0.000325397 0.000224742 0.00162189 -0.000804166 1005.59 8.42246e-13 
375 1 0.000349961 0.000224881 -0.000276823 0.000181288 1008.35 7.28421e-13 
376 1 0.000374343 0.000225027 -0.00153348 0.000407721 1002.55 1.65668e-12 
377 1 0.000399993 0.000225211 0.000920385 0.0021737 999.623 5.88762e-13 
378 1 0.000424629 0.000225236 -0.00144445 0.00167563 1000.61 8.51972e-13 
379 1 0.000450021 0.000224881 -0.000985381 3.53961e-05 998.498 4.88959e-13 
380 1 0.000474975 0.000224929 0.000332611 -0.000712614 997.037 3.92081e-13 
381 1 0.000500145 0.000225427 0.000699203 0.00330165 1000.5 1.04993e-12 
382 1 0.000524907 0.000224799 0.000697978 -0.0011969 1003.98 5.94594e-13 
383 1 0.000549995 0.000224892 0.00021781 0.000359591 1000.16 5.16322e-13 
384 1 0.000575254 0.00022514 0.00131285 0.00130626 994.993 8.28189e-13 
385 1 0.000600216 0.000224671 0.000693631 -0.00109231 996.512 9.59389e-13 
386 1 0.00062518 0.000224401 0.000862199 -0.00239143 1003.99 1.45676e-12 
387 1 0.000649627 0.000224732 -0.00270199 -0.002394 1006.27 1.30307e-12 
388 1 0.000674827 0.000225207 0.000608289 0.00108448 1003.64 6.8463e-13 
389 1 0.000700149 0.000224621 -0.000127231 -0.00220632 1005.27 1.09022e-12 
390 1 0.000724574 0.000225228 -0.00201086 -0.000347344 1005.8 1.16667e-12 
391 1 0.00074988 0.000224899 -0.000213838 -0.00165828 1002.94 5.5868e-13 
392 1 0.000774888 0.00022509 -0.00175063 -0.00124833 1001.47 4.9872e-13 
393 1 0.000800252 0.000225061 0.00108431 -0.000110346 1000.34 3.85687e-13 
394 1 0.000825425 0.000224793 0.00208135 0.000515117 1005.06 8.12658e-13 
395 1 0.000849997 0.000224827 0.000899083 -0.00107187 1008.03 7.1268e-13 
396 1 0.000874409 0.000225101 -0.00140346 0.00176725 1003.5 1.55728e-12 
397 1 0.00089997 0.000225259 0.000374198 0.00182819 1000.73 6.85491e-13 
398 1 0.000924588 0.000225217 -0.00196364 0.00104448 1000.56 1.06221e-12 
399 1 0.000950128 0.000224885 0.00143446 -0.000101175 997.097 5.44757e-13 
400 1 0.000975073 0.000225028 0.00240216 0.00125259 995.58 5.14237e-13 
401 1 3.19015e-07 0.000249762 0.00392046 -0.0019066 1000.55 7.66436e-13 
402 1 2.52083e-05 0.000249953 0.000447005 0.000199 1003.27 3.47757e-13 