ITEM: TIMESTEP
13600
ITEM: NUMBER OF ATOMS
900
ITEM: BOX BOUNDS pp pp pp
0 1.2
0 1.2
-0.012 0.012
ITEM: ATOMS id type x y z vx vy vz c_rho_peratom v_dAsphx v_dA v_dA_err c_ie_atom 
1 1 0.712986 0.193033 0 -0.00454587 -0.000414537 0 1.0273 -4.30042 -4.34615 0.00606538 0.0016 
2 1 1.04263 0.908504 0 -0.00195627 -0.00236012 0 1.03392 2.73863 3.55679 0.108512 0.0016 
3 1 0.837742 0.20096 0 0.00363219 -0.00266862 0 0.993725 -0.727457 -1.67676 0.125905 0.0016 
4 1 0.611409 0.220763 0 -0.006275 0.000744459 0 0.986357 -5.4199 -5.22665 0.025631 0.0016 
5 1 0.69616 0.158218 0 9.07975e-05 0.000717638 0 1.03002 -3.89208 -4.58622 0.092063 0.0016 
6 1 0.0192968 0.209798 0 -0.00187937 -0.00147121 0 0.999402 5.13835 5.20928 0.00940747 0.0016 
7 1 0.179491 0.893678 0 -0.00168624 -0.00166508 0 1.03553 2.85402 3.08891 0.0311524 0.0016 
8 1 0.932897 1.18636 0 0.00285071 0.00030033 0 1.00123 1.0788 0.897432 0.0240543 0.0016 
9 1 1.18477 1.18973 0 0.00153028 -0.00166021 0 1.03888 5.10184 5.21936 0.0155858 0.0016 
10 1 1.13603 0.0908919 0 -0.00270128 -0.00113353 0 1.02236 4.46468 4.94504 0.0637095 0.0016 
11 1 1.01118 0.712157 0 -0.00308668 0.00624854 0 1.02216 2.29987 2.87883 0.0767864 0.0016 
12 1 0.741589 1.13075 0 0.00120095 0.00452529 0 1.01862 -3.7253 -3.86181 0.0181049 0.0016 
13 1 0.0475256 0.359882 0 -0.00246111 0.00173009 0 1.00525 4.99707 5.07471 0.0102967 0.0016 
14 1 0.75946 0.664121 0 0.00269274 0.00411097 0 0.964508 -3.06125 -3.51454 0.0601194 0.0016 
15 1 0.806309 0.698238 0 0.00609648 0.00245818 0 1.0517 -1.39397 -2.46681 0.14229 0.0016 
16 1 0.608747 0.997492 0 -0.000601245 0.000937765 0 1.01116 -5.12374 -5.2305 0.0141597 0.0016 
17 1 0.548757 0.817614 0 0.000378069 -0.000697623 0 1.00855 -4.81155 -5.04865 0.0314456 0.0016 
18 1 0.68452 0.714539 0 -0.00326512 0.0011429 0 1.00649 -5.12452 -4.73157 0.0521166 0.0016 
19 1 0.923854 0.379007 0 0.000894399 0.00253847 0 1.00547 -0.0279439 0.652259 0.0902147 0.0016 
20 1 0.58178 0.576006 0 0.00213627 0.00138395 0 0.988523 -5.32005 -5.21218 0.0143067 0.0016 
21 1 0.954909 0.241366 0 0.00616308 0.0019566 0 0.997593 1.9787 1.48471 0.0655182 0.0016 
22 1 1.15452 0.986711 0 -0.00539028 0.00227963 0 0.979362 4.84304 5.08825 0.0325215 0.0016 
23 1 0.437012 0.139211 0 0.00180845 0.00377255 0 0.980058 -3.09231 -3.44225 0.0464119 0.0016 
24 1 0.40749 0.663399 0 0.00299612 0.0043677 0 1.02615 -3.08111 -2.79376 0.0381112 0.0016 
25 1 0.853568 1.04026 0 0.00136107 0.000258556 0 1.01702 -0.448238 -1.26046 0.107725 0.0016 
26 1 0.747168 0.629156 0 0.00177513 0.00585349 0 0.991443 -3.59042 -3.75689 0.0220791 0.0016 
27 1 1.03724 0.410366 0 -0.00256549 -0.00344289 0 1.00246 2.98204 3.44695 0.0616595 0.0016 
28 1 0.709704 0.619178 0 0.00510683 -0.00300256 0 1.00215 -4.03154 -4.39568 0.0482962 0.0016 
29 1 0.606983 0.374231 0 -0.0010278 0.00251601 0 1.00593 -5.25186 -5.23249 0.00256876 0.0016 
30 1 1.13405 0.169726 0 0.000350568 -0.00511165 0 1.00048 4.61334 4.9269 0.0415868 0.0016 
31 1 1.04078 0.83303 0 0.00543539 -0.00286895 0 1.0258 3.82842 3.51946 0.0409775 0.0016 
32 1 1.01882 1.10132 0 -0.000930351 -0.000876099 0 1.03817 2.83818 3.05145 0.0282863 0.0016 
33 1 0.620611 0.436356 0 0.00366807 -0.00320418 0 0.999226 -4.80306 -5.20553 0.0533792 0.0016 
34 1 0.207026 1.0384 0 0.00258311 -0.00298717 0 1.021 1.14682 2.44945 0.172767 0.0016 
35 1 0.551909 0.48245 0 0.00590254 -0.000109506 0 1.01044 -4.86751 -5.07087 0.0269715 0.0016 
36 1 0.249424 0.879237 0 -0.00345203 -0.00471343 0 1.0229 1.72049 1.37041 0.0464299 0.0016 
37 1 0.753686 0.0780407 0 0.00143526 0.00610022 0 1.01107 -2.94377 -3.63026 0.0910487 0.0016 
38 1 0.138801 0.741353 0 -0.00366555 -0.0068368 0 1.01462 3.95555 3.91302 0.00564012 0.0016 
39 1 0.169756 1.11635 0 -0.000390877 0.00214315 0 1.01212 3.37761 3.30031 0.010253 0.0016 
40 1 0.815739 0.156129 0 -0.0010387 0.000577419 0 1.01723 -2.1106 -2.23586 0.0166124 0.0016 
41 1 0.481753 1.01109 0 -0.00437829 -0.00145006 0 0.987522 -4.04751 -4.26407 0.0287224 0.0016 
42 1 0.275556 0.0809331 0 0.0060904 0.00609602 0 1.03582 -0.768634 0.668327 0.190583 0.0016 
43 1 0.0375001 0.647203 0 0.00198551 -0.000505003 0 0.980487 5.03933 5.13538 0.0127384 0.0016 
44 1 1.02177 0.104677 0 -0.0024993 -0.00330407 0 1.00731 2.58374 3.11673 0.0706891 0.0016 
45 1 0.29139 1.1572 0 0.000102305 -0.000265112 0 1.04607 0.916059 0.235977 0.0901986 0.0016 
46 1 0.174336 1.04502 0 -0.00778441 0.00121244 0 1.00086 4.49651 3.20188 0.171705 0.0016 
47 1 1.18421 0.968821 0 -0.00414525 -0.00461259 0 0.987479 5.0183 5.21811 0.0265 0.0016 
48 1 0.870528 0.175456 0 -0.00251085 -0.000971417 0 1.02074 -1.71795 -0.804784 0.121113 0.0016 
49 1 0.087897 1.18262 0 0.00202677 0.00148068 0 0.989795 4.81879 4.69119 0.016924 0.0016 
50 1 0.263241 0.475045 0 0.000552007 -0.00390017 0 0.969893 0.797832 1.00156 0.0270202 0.0016 
51 1 0.567166 0.158096 0 -0.00349902 0.00077883 0 0.985989 -5.08544 -5.1588 0.00973058 0.0016 
52 1 0.0873127 0.823584 0 -0.00235277 -0.00303317 0 0.999068 4.5428 4.69828 0.0206216 0.0016 
53 1 0.592897 1.18349 0 -0.00141745 -0.00056406 0 0.980698 -5.08006 -5.23237 0.0202002 0.0016 
54 1 0.800384 0.667733 0 -0.00391684 -0.000818652 0 1.04535 -3.44596 -2.60886 0.111024 0.0016 
55 1 0.420664 0.228275 0 0.00249057 0.00563297 0 1.02662 -3.33731 -3.09235 0.0324879 0.0016 
56 1 0.864049 0.853907 0 0.000753524 0.00135415 0 0.991803 -1.30611 -0.979798 0.0432778 0.0016 
57 1 0.879535 0.75363 0 0.00367255 -0.00169638 0 0.957215 -0.113492 -0.559982 0.0592175 0.0016 
58 1 0.71704 1.17524 0 -0.00149598 0.00359924 0 1.01235 -4.06387 -4.28318 0.0290871 0.0016 
59 1 1.06823 1.19362 0 0.00245216 0.00392971 0 1.01221 3.97581 4.03848 0.00831293 0.0016 
60 1 0.931174 1.00959 0 -0.000913594 0.00210867 0 1.00077 0.592327 0.850876 0.0342911 0.0016 
61 1 0.610349 0.312072 0 0.00322794 0.000788739 0 1.00438 -5.02022 -5.2283 0.0275977 0.0016 
62 1 0.155024 0.430472 0 -0.00571452 -0.0013161 0 1.0046 4.34256 3.60374 0.0979893 0.0016 
63 1 0.612152 1.10743 0 -0.00517921 -0.0032969 0 0.99903 -5.12868 -5.22539 0.0128263 0.0016 
64 1 0.399621 1.15403 0 -0.000126986 0.00224382 0 0.992614 -3.04076 -2.60899 0.0572665 0.0016 
65 1 0.942852 0.975429 0 0.00377251 0.00324391 0 0.995378 1.94817 1.16498 0.103874 0.0016 
66 1 0.80716 0.206254 0 -0.00160599 -0.00264124 0 1.00645 -2.74877 -2.44619 0.0401301 0.0016 
67 1 0.831437 0.464213 0 0.00148104 -3.51521e-05 0 1.00612 -1.80949 -1.83958 0.00399062 0.0016 
68 1 0.19561 0.555956 0 0.00204413 -0.00314002 0 1.03819 2.48623 2.72153 0.0312085 0.0016 
69 1 0.232094 0.821824 0 -0.00225305 -0.00120694 0 1.02285 1.30597 1.82269 0.0685329 0.0016 
70 1 0.910313 1.15841 0 0.0027151 -0.000379064 0 1.02296 0.55306 0.282605 0.0358701 0.0016 
71 1 1.07764 0.129527 0 -0.00295969 -0.00173222 0 1.00557 3.52488 4.19759 0.0892211 0.0016 
72 1 1.04246 0.26655 0 0.00270159 0.00161111 0 1.02303 3.39456 3.55333 0.0210575 0.0016 
73 1 0.360812 0.552074 0 -0.00255165 0.004131 0 1.01095 -1.60957 -1.63916 0.00392573 0.0016 
74 1 0.82883 1.01566 0 -0.00457309 0.000183721 0 1.03033 -2.72014 -1.90633 0.107935 0.0016 
75 1 0.334069 0.67888 0 3.05395e-05 -0.00155438 0 1.05155 -0.742823 -0.929063 0.0247008 0.0016 
76 1 0.973983 0.892959 0 -0.00112125 0.00381949 0 1.04059 1.73837 1.97793 0.0317717 0.0016 
77 1 0.760551 1.09969 0 -0.00149637 -0.000966644 0 1.02688 -3.4178 -3.49231 0.00988248 0.0016 
78 1 0.0287162 0.777847 0 -0.00375312 -0.00516145 0 1.0082 5.00245 5.17691 0.0231389 0.0016 
79 1 0.548758 1.04159 0 -0.00158041 9.32098e-05 0 1.00799 -4.85788 -5.04866 0.0253028 0.0016 
80 1 0.78265 0.832311 0 -0.00068 -0.00139432 0 1.00329 -3.12472 -3.01856 0.0140787 0.0016 
81 1 0.00512602 0.261895 0 7.17587e-05 -0.000637107 0 1.02005 4.97678 5.2341 0.0341289 0.0016 
82 1 0.154979 1.00252 0 0.00154639 -0.00105563 0 1.01441 2.93427 3.60464 0.0889105 0.0016 
83 1 0.624971 0.551083 0 -0.00209335 -0.00246276 0 1.01609 -4.99185 -5.1913 0.0264531 0.0016 
84 1 0.202323 0.239844 0 0.000676838 0.00236253 0 0.918801 2.59792 2.56265 0.00467694 0.0016 
85 1 1.14968 0.710532 0 -0.00290979 -0.0056605 0 0.960366 4.96209 5.05528 0.0123603 0.0016 
86 1 0.578433 0.0394713 0 0.000702399 -0.000349032 0 1.00739 -4.95161 -5.20264 0.033294 0.0016 
87 1 0.0661864 0.615163 0 -0.00338307 -0.00251513 0 1.01748 4.89508 4.92471 0.00392978 0.0016 
88 1 0.642069 0.0762034 0 -0.00283343 -0.000138391 0 1.01095 -4.81969 -5.10948 0.0384345 0.0016 
89 1 1.07708 0.213452 0 -0.0015856 -0.003516 0 1.01668 3.46355 4.18853 0.096153 0.0016 
90 1 0.00436658 0.562086 0 -0.00230849 0.00112077 0 0.994923 5.14652 5.23462 0.0116847 0.0016 
91 1 0.822347 0.251947 0 -0.000787883 -0.00755422 0 1.00298 -2.27629 -2.07072 0.0272647 0.0016 
92 1 0.638257 0.407099 0 0.0075953 -0.00144819 0 0.986233 -4.70414 -5.13129 0.0566519 0.0016 
93 1 0.296546 0.432082 0 0.00261637 -0.00126825 0 1.02055 -0.0162007 0.094692 0.0147076 0.0016 
94 1 0.876555 1.16336 0 0.00123393 0.0044632 0 1.02536 -0.514533 -0.641139 0.0167917 0.0016 
95 1 0.391667 0.635366 0 0.00205351 -0.00399075 0 1.0323 -2.45851 -2.41771 0.00541124 0.0016 
96 1 0.497127 0.88548 0 0.00213905 -0.000731325 0 0.991915 -4.65688 -4.49461 0.0215224 0.0016 
97 1 0.301296 0.108975 0 0.000504855 0.00712922 0 1.05302 0.360694 -0.0355219 0.0525498 0.0016 
98 1 0.389014 0.134771 0 0.00100845 0.00284651 0 1.02363 -1.98337 -2.35298 0.0490214 0.0016 
99 1 0.490626 0.387475 0 -0.000295465 0.00258297 0 1.00054 -4.18403 -4.40059 0.0287217 0.0016 
100 1 0.161458 0.0681546 0 0.000552933 -0.00137246 0 1.03952 3.13117 3.47376 0.0454373 0.0016 
101 1 0.684315 1.04908 0 0.000263171 0.00079061 0 0.984572 -4.68588 -4.73398 0.00638051 0.0016 
102 1 0.818213 0.300714 0 0.00923689 -0.00495424 0 0.984722 -0.530541 -2.17433 0.218014 0.0016 
103 1 0.263678 0.123487 0 -0.00247173 0.00479824 0 1.03682 1.34071 0.98979 0.0465424 0.0016 
104 1 0.748643 0.704565 0 0.00494762 0.0022934 0 1.0006 -3.07745 -3.72862 0.0863639 0.0016 
105 1 0.118062 0.96225 0 0.00181972 0.0022792 0 0.996772 3.98187 4.26702 0.0378192 0.0016 
106 1 1.09735 0.902761 0 -0.00202628 0.00466808 0 1.00358 4.21189 4.49776 0.0379159 0.0016 
107 1 0.383655 0.524791 0 -0.00336793 0.00340835 0 1.03348 -1.10368 -2.22082 0.148165 0.0016 
108 1 0.297071 0.228074 0 -0.00420129 0.00456791 0 0.994456 1.64402 0.0802957 0.207396 0.0016 
109 1 1.15656 0.860813 0 0.00350232 -0.000933154 0 1.01521 5.08456 5.1011 0.00219403 0.0016 
110 1 0.36121 0.182916 0 0.0013433 0.00332292 0 1.0151 -2.10639 -1.64952 0.0605933 0.0016 
111 1 0.35936 0.446212 0 -8.64027e-06 0.00175988 0 1.00791 -0.936654 -1.6013 0.0881516 0.0016 
112 1 1.19996 0.653908 0 -0.000874821 -0.00385301 0 1.00136 4.99016 5.23599 0.0326034 0.0016 
113 1 0.0240914 0.466149 0 -0.00120869 0.00433631 0 0.978403 5.13071 5.19439 0.00844471 0.0016 
114 1 0.897803 0.971224 0 0.00261038 0.0023397 0 0.973767 0.287364 -0.0602266 0.0461006 0.0016 
115 1 1.1829 0.320023 0 -0.000523165 -0.0018589 0 0.975315 5.27683 5.21502 0.00819737 0.0016 
116 1 0.165625 0.00243825 0 -0.000435899 -0.00635766 0 1.04549 3.81028 3.38745 0.0560804 0.0016 
117 1 0.384576 0.0590486 0 -0.000109941 0.0020724 0 0.997842 -2.48624 -2.24365 0.0321749 0.0016 
118 1 1.19931 0.79513 0 -0.00257477 -0.00172853 0 1.00497 5.17378 5.23595 0.00824582 0.0016 
119 1 0.394982 0.597768 0 -0.0014497 -0.00212213 0 0.997602 -2.43791 -2.49797 0.00796638 0.0016 
120 1 1.05195 0.365385 0 0.0045471 -0.00166154 0 0.971422 4.707 3.74009 0.128241 0.0016 
121 1 0.0987188 1.09474 0 -0.000110595 -0.00193956 0 0.973498 4.16515 4.55196 0.0513027 0.0016 
122 1 0.315773 0.732193 0 -0.00343814 -3.5599e-05 0 1.00579 -0.616216 -0.431943 0.02444 0.0016 
123 1 0.215826 0.8596 0 -0.00743551 -0.00369333 0 1.00259 3.15376 2.23369 0.122028 0.0016 
124 1 0.156243 0.833075 0 -0.00628617 -0.00551478 0 1.03245 3.736 3.57943 0.0207665 0.0016 
125 1 1.14248 0.343422 0 0.000850643 0.00414002 0 0.973049 4.71466 5.0003 0.0378836 0.0016 
126 1 0.568969 0.744412 0 0.000379006 0.00314529 0 1.00693 -4.89352 -5.16703 0.0362754 0.0016 
127 1 0.682505 0.903208 0 -0.00125753 -0.00156656 0 1.01697 -4.27372 -4.75497 0.0638276 0.0016 
128 1 0.965865 1.14666 0 0.00245039 -0.00158573 0 0.973128 1.72516 1.77015 0.00596778 0.0016 
129 1 1.09829 0.683668 0 -0.00273184 -0.00182391 0 1.00967 4.24531 4.51092 0.035228 0.0016 
130 1 0.157364 0.222186 0 0.000280585 0.00405453 0 1.02077 3.50159 3.55693 0.00733951 0.0016 
131 1 0.215588 0.349849 0 -0.00127517 0.00057273 0 0.978341 2.51044 2.2396 0.0359208 0.0016 
132 1 0.566683 0.614353 0 -0.0017429 0.00184928 0 1.00248 -4.95761 -5.15652 0.0263805 0.0016 
133 1 0.850604 0.274427 0 0.00334577 -0.00399999 0 1.0291 -1.06381 -1.33918 0.0365219 0.0016 
134 1 1.18382 0.22688 0 -8.54873e-05 0.00092134 0 1.01461 4.98551 5.21722 0.0307309 0.0016 
135 1 0.221347 0.490449 0 0.00172151 -0.005639 0 0.994443 1.53054 2.09589 0.0749808 0.0016 
136 1 0.980172 0.930854 0 -0.000291648 -0.00563392 0 1.05293 2.4939 2.13398 0.0477354 0.0016 
137 1 1.01546 0.983708 0 -0.00210285 0.00488775 0 1.02598 2.7672 2.97611 0.0277072 0.0016 
138 1 1.01772 0.33403 0 -0.00121375 0.00186312 0 0.99107 2.14563 3.0268 0.116868 0.0016 
139 1 0.910524 0.166008 0 0.00044711 -0.00772169 0 1.0129 0.123803 0.288362 0.0218253 0.0016 
140 1 0.237268 1.15482 0 0.00944322 0.00107838 0 1.00778 -0.906935 1.68909 0.344308 0.0016 
141 1 0.378111 0.288138 0 0.00358654 0.00555803 0 0.985974 -2.42509 -2.08224 0.0454713 0.0016 
142 1 0.487729 0.644307 0 -0.00486218 -0.00221549 0 0.999517 -3.91793 -4.35706 0.0582403 0.0016 
143 1 0.72939 0.229286 0 -0.00343999 0.00014123 0 1.01719 -3.98193 -4.07962 0.0129572 0.0016 
144 1 0.463341 0.209341 0 -0.00395956 0.00487156 0 0.964009 -3.41179 -3.95178 0.0716187 0.0016 
145 1 0.216025 0.747733 0 0.000280208 -0.00116668 0 1.01342 1.7437 2.22877 0.0643341 0.0016 
146 1 1.14197 0.467726 0 -0.00113618 -0.000408119 0 0.982389 4.9983 4.99611 0.000290695 0.0016 
147 1 0.871775 0.302861 0 0.0060451 -0.00558789 0 1.03707 -0.535914 -0.770983 0.031177 0.0016 
148 1 0.638379 0.727224 0 -0.00183579 -0.00343957 0 0.996358 -5.14738 -5.13062 0.00222254 0.0016 
149 1 0.381476 0.814286 0 -0.00141985 0.000726286 0 1.03526 -1.6558 -2.16657 0.0677427 0.0016 
150 1 0.416255 0.102873 0 0.000505497 0.00360764 0 1.01329 -2.73508 -2.994 0.0343402 0.0016 
151 1 0.613895 0.018163 0 -0.00426582 0.0028042 0 0.989421 -5.20191 -5.22214 0.00268211 0.0016 
152 1 0.766404 1.00577 0 0.00222321 0.00368278 0 1.01806 -2.68758 -3.37114 0.0906599 0.0016 
153 1 0.803836 0.946241 0 -0.00120026 0.00052944 0 0.998619 -1.99258 -2.5264 0.0707998 0.0016 
154 1 0.0900856 1.13908 0 0.000873404 -0.000777595 0 0.979212 4.6305 4.66423 0.00447443 0.0016 
155 1 0.887848 0.209468 0 0.00761603 -0.00375506 0 1.01333 1.35853 -0.332939 0.224338 0.0016 
156 1 0.943558 0.815677 0 0.000811399 0.00121883 0 1.01086 1.16481 1.18385 0.00252548 0.0016 
157 1 0.739727 0.911983 0 -0.0027309 0.000654334 0 0.971252 -4.24785 -3.8961 0.046652 0.0016 
158 1 0.272665 1.12625 0 0.0043732 -0.00378012 0 1.04246 -0.424893 0.746855 0.155408 0.0016 
159 1 1.17754 0.73984 0 -0.00374972 -0.00543099 0 1.0039 4.8295 5.19984 0.0491175 0.0016 
160 1 1.11243 0.200886 0 0.00246439 -1.18979e-05 0 1.00996 4.78813 4.69521 0.0123243 0.0016 
161 1 0.241501 0.987636 0 -0.0032381 -0.00360491 0 1.01459 2.67962 1.57883 0.145996 0.0016 
162 1 0.328078 7.56471e-05 0 0.00125207 -0.00296073 0 0.952732 -0.658605 -0.767006 0.0143772 0.0016 
163 1 0.543639 0.517535 0 0.00203612 -0.000723651 0 1.0137 -4.72037 -5.00964 0.0383658 0.0016 
164 1 0.644471 0.621488 0 0.00611794 -0.00541186 0 1.02271 -4.78993 -5.09468 0.0404191 0.0016 
165 1 1.08128 0.285077 0 -0.00192576 0.00198743 0 1.01707 3.39625 4.25647 0.11409 0.0016 
166 1 1.05867 0.323095 0 0.00172135 0.00124918 0 0.97082 4.30764 3.86661 0.0584928 0.0016 
167 1 0.855823 0.0837805 0 -0.00306787 -0.000672896 0 0.993881 -1.59255 -1.20035 0.0520168 0.0016 
168 1 0.56587 0.222048 0 -0.00527841 0.0012307 0 0.996953 -4.8826 -5.1526 0.0358103 0.0016 
169 1 1.14446 1.13205 0 0.0040258 0.00396867 0 0.998568 5.11911 5.01613 0.0136577 0.0016 
170 1 0.0910613 1.01747 0 -0.00805946 -0.00253113 0 1.01299 4.94999 4.65202 0.0395191 0.0016 
171 1 0.837175 0.613532 0 -0.00260738 -0.00265034 0 1.02009 -2.36317 -1.69148 0.0890857 0.0016 
172 1 0.511947 0.218746 0 -0.00483783 -0.00103684 0 0.996374 -4.35061 -4.68929 0.044919 0.0016 
173 1 0.691096 0.936642 0 -0.00296157 0.00423521 0 1.02444 -4.66588 -4.65158 0.00189727 0.0016 
174 1 0.796621 1.11512 0 -0.000330826 0.00725236 0 1.01319 -2.44707 -2.69781 0.0332553 0.0016 
175 1 1.11731 0.529142 0 -0.00583 0.000346171 0 1.00248 4.42544 4.75284 0.043422 0.0016 
176 1 0.234184 0.285144 0 0.00199403 0.00018661 0 1.02956 1.50882 1.76887 0.0344906 0.0016 
177 1 0.652267 1.07388 0 0.00308668 0.00133801 0 1.00017 -4.60406 -5.04114 0.0579685 0.0016 
178 1 0.12019 0.151567 0 -0.00044131 0.00116219 0 1.00194 4.49201 4.23294 0.0343602 0.0016 
179 1 1.04034 1.06527 0 0.00394404 0.00161244 0 1.00682 4.4408 3.5104 0.123398 0.0016 
180 1 0.0828111 0.582048 0 0.000692666 -0.00539279 0 1.03281 4.52901 4.75145 0.0295025 0.0016 
181 1 0.669314 0.146033 0 -0.00942678 -0.00231065 0 1.026 -5.16958 -4.89492 0.0364274 0.0016 
182 1 0.569537 0.367965 0 -0.00253659 -0.00122837 0 1.00689 -4.82779 -5.16952 0.0453235 0.0016 
183 1 1.03289 0.0595402 0 0.00121828 0.00136313 0 1.00098 3.62852 3.3564 0.0360906 0.0016 
184 1 0.0798591 0.541795 0 0.00246868 -0.00423663 0 1.01933 4.67091 4.78488 0.0151168 0.0016 
185 1 0.336194 0.823236 0 0.00273362 0.00157957 0 0.979509 -2.07934 -0.986357 0.144962 0.0016 
186 1 1.02586 1.17986 0 -0.000842562 -0.00289951 0 1.00421 3.15782 3.2062 0.00641563 0.0016 
187 1 0.349834 0.866641 0 0.000534748 -0.00255813 0 1.02515 -1.65724 -1.35079 0.0406444 0.0016 
188 1 0.312808 0.864722 0 -0.0037023 -0.00513328 0 1.02404 0.312615 -0.350881 0.0879988 0.0016 
189 1 0.279506 0.862834 0 -0.00246127 -0.0039229 0 1.02397 0.511498 0.560788 0.00653728 0.0016 
190 1 0.191751 0.829001 0 -0.00440336 -0.00390452 0 1.01429 3.0228 2.81134 0.0280463 0.0016 
191 1 1.0843 0.641854 0 -0.00226762 -0.00300389 0 0.996645 3.82891 4.30423 0.0630419 0.0016 
192 1 0.0221261 0.0834516 0 0.00202939 0.00399872 0 1.01574 4.94594 5.20089 0.0338134 0.0016 
193 1 0.945632 0.283872 0 0.00324684 -0.00346509 0 0.982089 1.01054 1.23917 0.0303226 0.0016 
194 1 0.582953 0.529251 0 -0.00205091 0.00250118 0 1.0107 -5.11122 -5.21514 0.013784 0.0016 
195 1 0.4913 0.177044 0 -0.00560069 0.0029126 0 0.974079 -4.49577 -4.41058 0.0112986 0.0016 
196 1 0.115057 0.848953 0 -0.00283526 -5.09984e-05 0 0.997857 4.03996 4.31424 0.0363771 0.0016 
197 1 0.488381 1.05533 0 -0.00376371 -0.00355191 0 1.01786 -3.82954 -4.36693 0.0712736 0.0016 
198 1 0.274579 0.910847 0 -0.00090458 -0.00658081 0 0.998628 0.145757 0.694884 0.0728302 0.0016 
199 1 0.884481 1.11749 0 -0.00239692 0.00320165 0 0.959577 -1.10631 -0.424989 0.0903625 0.0016 
200 1 0.769039 0.211253 0 -0.00164157 0.00280938 0 0.999122 -3.44986 -3.31555 0.0178139 0.0016 
201 1 1.06272 0.479241 0 0.000253074 0.000793269 0 1.00266 4.18644 3.94062 0.0326035 0.0016 
202 1 0.883912 0.886586 0 -0.00159432 0.00457488 0 0.982251 -0.532389 -0.440534 0.0121827 0.0016 
203 1 0.114234 0.924834 0 -0.000565612 0.00152921 0 0.987304 4.11498 4.32697 0.0281165 0.0016 
204 1 0.925746 0.780087 0 0.0032277 0.000580465 0 1.00938 0.904273 0.703706 0.0266011 0.0016 
205 1 1.19697 0.357326 0 -0.000881997 -0.00237365 0 0.995546 5.01351 5.23533 0.0294196 0.0016 
206 1 0.210407 0.936864 0 -0.00290003 -0.00360293 0 1.02736 2.65089 2.36713 0.037635 0.0016 
207 1 0.899624 0.26465 0 0.00422671 -0.00455676 0 0.979704 -0.158349 -0.0103209 0.0196329 0.0016 
208 1 0.844792 1.14024 0 0.0016768 0.00372224 0 1.03156 -1.13126 -1.49255 0.0479186 0.0016 
209 1 0.243899 0.394665 0 -0.000323323 -0.000488712 0 1.00666 1.3067 1.51601 0.0277609 0.0016 
210 1 0.542379 0.886138 0 0.00382712 0.00168572 0 1.00088 -5.1045 -4.99949 0.0139283 0.0016 
211 1 0.503281 0.284868 0 0.00648843 0.00086849 0 0.984779 -5.01899 -4.5788 0.0583815 0.0016 
212 1 0.165951 0.35894 0 -0.000544262 -0.00324926 0 1.00259 3.47289 3.38062 0.0122378 0.0016 
213 1 0.835223 0.350855 0 0.00123219 -0.00462679 0 1.01994 -2.28722 -1.74206 0.0723041 0.0016 
214 1 0.251712 0.00429997 0 0.000266626 0.00372984 0 1.00522 1.33691 1.30979 0.00359729 0.0016 
215 1 0.971679 0.115861 0 -0.00263879 -0.00313662 0 1.01129 1.85112 1.9193 0.00904289 0.0016 
216 1 0.447054 0.419976 0 0.00282566 0.00471847 0 0.997026 -3.92097 -3.64485 0.0366222 0.0016 
217 1 1.06159 0.604143 0 7.85584e-05 0.000657655 0 0.972775 4.18495 3.92014 0.0351218 0.0016 
218 1 0.882884 1.00402 0 8.57575e-05 0.00165661 0 0.99108 -0.948267 -0.468611 0.0636164 0.0016 
219 1 0.509319 0.532138 0 0.00314685 0.000588236 0 1.0045 -4.778 -4.65679 0.016076 0.0016 
220 1 0.453435 0.255706 0 -6.97358e-05 0.00703075 0 0.998373 -3.71154 -3.76839 0.0075405 0.0016 
221 1 0.0362516 0.181616 0 0.00526876 -0.00054594 0 1.00289 4.73144 5.14195 0.0544446 0.0016 
222 1 0.41066 1.02969 0 -0.00503056 0.00339446 0 0.984997 -2.06109 -2.86688 0.106872 0.0016 
223 1 1.09605 0.0848596 0 0.00188898 0.00141945 0 1.00833 4.60723 4.47938 0.016957 0.0016 
224 1 0.385145 1.12073 0 -0.00479637 0.00162757 0 0.988784 -1.31175 -2.25774 0.125466 0.0016 
225 1 0.487729 0.246683 0 -0.000837076 0.0032517 0 1.01099 -4.14827 -4.35706 0.0276911 0.0016 
226 1 0.384718 0.846786 0 0.00594991 0.00236462 0 1.02535 -3.43209 -2.24717 0.157155 0.0016 
227 1 0.784511 0.161503 0 -0.00250297 0.00184177 0 1.02048 -3.13772 -2.97673 0.0213523 0.0016 
228 1 0.720243 0.37806 0 0.00414993 -0.0110289 0 1.01458 -4.21055 -4.23209 0.00285702 0.0016 
229 1 1.06023 0.783371 0 -0.00261712 -8.68447e-05 0 1.01829 2.78623 3.89531 0.147097 0.0016 
230 1 0.722493 0.948901 0 0.000871442 -0.00181654 0 1.03141 -3.9101 -4.19547 0.0378483 0.0016 
231 1 0.848894 0.143686 0 0.000319694 -0.00399391 0 1.02889 -0.881884 -1.38443 0.0666521 0.0016 
232 1 0.0972557 0.258053 0 -0.00368715 -0.00152025 0 0.989175 4.75971 4.57165 0.0249424 0.0016 
233 1 0.1626 0.92925 0 -0.00234254 -0.00455888 0 0.981586 3.28955 3.45027 0.0213156 0.0016 
234 1 0.584177 0.705498 0 -0.00896268 0.00233025 0 1.06888 -4.71727 -5.21803 0.0664153 0.0016 
235 1 0.00809927 1.00327 0 -0.00533178 -0.0020374 0 0.984149 5.16918 5.23128 0.00823565 0.0016 
236 1 0.999285 0.0428428 0 -0.000580203 -0.000471627 0 1.01821 2.5565 2.601 0.00590204 0.0016 
237 1 0.189758 0.668132 0 0.0035901 -0.00218336 0 1.01667 1.90943 2.85728 0.125712 0.0016 
238 1 0.518764 0.629048 0 0.00343314 0.00461824 0 1.00779 -4.97999 -4.76943 0.0279263 0.0016 
239 1 0.3477 0.210381 0 -0.00227097 0.00319047 0 1.01268 -0.521126 -1.29417 0.102528 0.0016 
240 1 0.482234 0.133728 0 -0.00108228 0.000245561 0 0.929716 -4.67464 -4.27172 0.0534386 0.0016 
241 1 1.10549 0.485788 0 -0.00111903 -0.00305391 0 0.982212 4.59379 4.60789 0.00186909 0.0016 
242 1 0.997493 0.954268 0 -0.00382509 0.00960606 0 1.05735 1.95702 2.55825 0.0797406 0.0016 
243 1 0.941867 0.410882 0 0.00238716 0.00144443 0 1.007 1.6391 1.13864 0.0663761 0.0016 
244 1 0.899756 0.593646 0 -0.000459214 0.00118804 0 1.01833 -0.323694 -0.00667698 0.0420456 0.0016 
245 1 0.339881 0.489418 0 0.00439745 0.00396143 0 1.01453 -1.63614 -1.08544 0.0730392 0.0016 
246 1 0.540273 0.0587392 0 0.00190391 -0.000775032 0 0.993723 -5.29682 -4.98203 0.0417505 0.0016 
247 1 0.649428 0.183317 0 -0.00247453 -0.000322431 0 0.986414 -4.62656 -5.06161 0.0577007 0.0016 
248 1 0.446852 1.04317 0 -0.00304087 0.00187738 0 0.9803 -3.52247 -3.64088 0.0157048 0.0016 
249 1 0.0690534 0.217812 0 0.000503746 -0.0014157 0 0.978611 5.01381 4.89746 0.0154322 0.0016 
250 1 0.0407816 0.573824 0 -0.000619092 -0.00329534 0 1.0136 4.95919 5.11707 0.0209389 0.0016 
251 1 1.17726 0.926475 0 -0.000135574 0.00100573 0 0.993789 5.22565 5.19893 0.00354363 0.0016 
252 1 0.717067 0.332488 0 0.00194291 -0.0052166 0 1.02184 -4.30114 -4.28276 0.00243709 0.0016 
253 1 1.15243 0.0359285 0 0.00738932 0.00123262 0 0.994989 5.30972 5.0744 0.0312103 0.0016 
254 1 0.540882 1.07887 0 -0.00417192 -0.00360005 0 0.988246 -4.39194 -4.98714 0.0789407 0.0016 
255 1 0.47847 0.794841 0 0.000911185 0.00542951 0 1.02431 -4.08261 -4.21122 0.0170567 0.0016 
256 1 0.47616 0.840263 0 -0.00123253 0.00475331 0 0.959846 -3.98139 -4.17326 0.0254487 0.0016 
257 1 0.530075 0.120197 0 -0.00451491 0.00248131 0 1.02429 -4.60475 -4.88896 0.0376936 0.0016 
258 1 0.865296 0.23655 0 -0.00164675 -0.00248839 0 1.0012 -2.12488 -0.946205 0.156326 0.0016 
259 1 0.445577 0.039299 0 0.000837473 0.00402427 0 1.01405 -3.87587 -3.61567 0.0345103 0.0016 
260 1 0.546128 0.324499 0 -0.000438711 0.00221927 0 1.00315 -4.88576 -5.02907 0.0190073 0.0016 
261 1 0.12669 1.01437 0 -0.00293779 -0.00335127 0 1.02109 4.03639 4.12561 0.0118328 0.0016 
262 1 0.749692 0.510835 0 -0.000530037 -0.00156689 0 1.00255 -4.34023 -3.70837 0.083804 0.0016 
263 1 0.125404 1.19722 0 0.00059851 -0.00688846 0 1.03843 4.00408 4.14724 0.0189866 0.0016 
264 1 0.457807 1.13197 0 0.000247221 -5.21371e-05 0 1.02513 -4.11829 -3.85062 0.0355008 0.0016 
265 1 0.647675 0.032221 0 0.000531363 -0.000739936 0 0.982846 -4.67772 -5.0737 0.0525179 0.0016 
266 1 0.758542 0.748328 0 -0.00613217 0.00340955 0 1.03998 -4.66468 -3.53316 0.150072 0.0016 
267 1 0.794002 1.07153 0 -0.00135793 0.00513191 0 0.998703 -2.39819 -2.7591 0.047867 0.0016 
268 1 1.12875 1.16887 0 0.00236494 0.00265865 0 1.01096 4.69203 4.87582 0.0243756 0.0016 
269 1 0.985108 1.09843 0 -0.00164903 0.00204412 0 1.01373 2.27 2.25683 0.00174618 0.0016 
270 1 1.1247 0.746349 0 0.00254893 -0.00115503 0 0.994283 4.7106 4.83432 0.0164087 0.0016 
271 1 0.943924 0.940037 0 -0.00107414 0.00511105 0 1.02984 1.20291 1.19361 0.00123229 0.0016 
272 1 0.842297 0.950265 0 -0.00325353 -0.000185377 0 1.03825 -1.98371 -1.55799 0.0564623 0.0016 
273 1 0.558169 0.00993341 0 -0.00307823 -0.00241938 0 1.00447 -4.76704 -5.1109 0.0456061 0.0016 
274 1 0.977138 0.833632 0 0.00079172 0.00968232 0 1.02745 2.37857 2.05776 0.0425484 0.0016 
275 1 0.709667 0.505868 0 0.00382021 -0.00654949 0 1.05861 -4.41676 -4.39623 0.00272359 0.0016 
276 1 0.79806 0.987243 0 0.000112099 -0.00363311 0 0.985992 -2.40685 -2.66392 0.0340947 0.0016 
277 1 0.712431 0.540719 0 -0.00102262 -0.00180012 0 1.03175 -4.56138 -4.35462 0.0274228 0.0016 
278 1 0.0861168 1.05494 0 -0.00276826 -0.000435019 0 1.00826 4.4241 4.71266 0.0382723 0.0016 
279 1 0.580899 0.794999 0 0.00496447 0.000269874 0 0.986657 -5.27353 -5.20982 0.00844922 0.0016 
280 1 0.695154 0.410533 0 0.0109757 -0.00708132 0 1.01459 -3.38628 -4.59946 0.160904 0.0016 
281 1 0.527818 0.856192 0 0.00192594 0.000175139 0 1.00605 -4.52651 -4.86646 0.0450876 0.0016 
282 1 0.310347 1.10507 0 -0.00491085 -0.00299806 0 1.01378 1.12834 -0.283531 0.187255 0.0016 
283 1 1.10538 0.311154 0 0.00646865 -0.00176894 0 1.02533 4.96259 4.60642 0.0472375 0.0016 
284 1 0.409582 0.200329 0 -0.00639082 0.00672841 0 1.02252 -0.867274 -2.84211 0.261921 0.0016 
285 1 0.0364259 0.431376 0 -0.000999515 0.00539909 0 1.01664 4.78725 5.14104 0.0469229 0.0016 
286 1 0.727612 0.446464 0 0.00276811 -0.00929155 0 1.01948 -4.47468 -4.11 0.0483666 0.0016 
287 1 0.782651 0.609604 0 -0.00313455 -0.00217034 0 1.02581 -3.16285 -3.01854 0.0191403 0.0016 
288 1 0.0195105 0.510097 0 -0.00250307 0.000751303 0 1.01651 5.2237 5.20869 0.00199041 0.0016 
289 1 0.644421 1.18866 0 -0.00437465 0.00258899 0 1.00288 -4.9647 -5.095 0.017281 0.0016 
290 1 0.463746 0.883427 0 -0.000161548 0.000779676 0 0.997585 -3.69541 -3.95906 0.0349668 0.0016 
291 1 0.0343442 0.118142 0 0.0076668 0.00135309 0 1.00385 4.7188 5.15156 0.0573963 0.0016 
292 1 0.520975 1.13824 0 0.00197456 0.00199373 0 1.02489 -4.80672 -4.79412 0.00167132 0.0016 
293 1 1.19175 1.11939 0 -0.00185146 -0.00504575 0 1.00432 5.0086 5.2311 0.0295095 0.0016 
294 1 0.785752 0.40443 0 0.00776137 -0.000671463 0 1.00323 -2.86168 -2.94867 0.0115381 0.0016 
295 1 0.605233 0.75575 0 0.00341085 -0.00576464 0 0.9818 -5.17435 -5.23402 0.00791486 0.0016 
296 1 0.523496 0.672767 0 -0.00454311 0.00146342 0 1.01923 -4.51902 -4.8215 0.0401175 0.0016 
297 1 0.945404 0.858161 0 -0.000516836 0.00315673 0 1.01986 1.57317 1.23309 0.0451046 0.0016 
298 1 0.625421 1.0555 0 -0.0026173 0.00202126 0 1.00595 -5.05955 -5.18967 0.0172577 0.0016 
299 1 0.399392 0.751935 0 -0.00164741 -0.00124473 0 1.00943 -2.47087 -2.60355 0.017597 0.0016 
300 1 1.18653 0.112451 0 0.00293203 0.000348655 0 0.963475 5.23386 5.22296 0.0014449 0.0016 
301 1 0.358322 0.592522 0 -0.00353471 0.00229383 0 0.974516 -0.765153 -1.5742 0.107303 0.0016 
302 1 0.364053 0.364313 0 0.00155057 0.00370875 0 1.00065 -1.33997 -1.72331 0.0508413 0.0016 
303 1 0.893674 0.094905 0 -0.00141858 -0.00175668 0 1.01433 -0.610978 -0.173402 0.0580354 0.0016 
304 1 0.109457 0.077554 0 0.00348503 -0.00252497 0 0.992018 4.1258 4.39937 0.0362832 0.0016 
305 1 0.694292 0.254231 0 -0.00206692 -0.00257818 0 0.96195 -4.71499 -4.6107 0.0138319 0.0016 
306 1 0.744982 0.979894 0 0.000158275 0.00281638 0 1.0159 -3.74397 -3.7984 0.00721838 0.0016 
307 1 0.714494 0.0732442 0 0.000923503 -0.00400895 0 1.0076 -3.94397 -4.32296 0.0502644 0.0016 
308 1 0.899702 1.0392 0 -0.00349812 0.00264987 0 0.996919 -0.384925 -0.00818149 0.0499672 0.0016 
309 1 0.62112 0.791062 0 0.000364297 -0.00196406 0 0.996975 -5.00275 -5.204 0.0266925 0.0016 
310 1 1.10431 0.977974 0 -0.00736676 -0.00399905 0 1.01759 3.74446 4.59244 0.112467 0.0016 
311 1 0.787082 0.249506 0 -0.00130853 0.00123869 0 0.991981 -3.3389 -2.91848 0.0557594 0.0016 
312 1 1.17741 1.0765 0 -0.00317001 -0.00295124 0 0.999706 5.10341 5.19942 0.0127341 0.0016 
313 1 0.230393 1.08109 0 -0.00537621 -0.00166739 0 1.04153 2.3604 1.86636 0.0655241 0.0016 
314 1 0.40652 0.557747 0 -0.00028104 0.00046669 0 0.998242 -2.91524 -2.77124 0.0190988 0.0016 
315 1 0.718446 1.02606 0 0.00159587 0.0012718 0 0.968964 -4.06831 -4.26091 0.0255446 0.0016 
316 1 0.0248036 0.962626 0 -0.00230376 0.000500765 0 0.990399 5.11386 5.19189 0.0103498 0.0016 
317 1 0.229283 0.109889 0 -0.000170107 0.00143593 0 1.00682 1.90865 1.89474 0.00184579 0.0016 