LAMMPS (9 Nov 2011)
echo               both
dimension          3
units              si
atom_style   hybrid  bond meso
boundary          p p p
# create simulation box
#3D box
variable           L  equal 5e-4
region             box block 0.0 ${L}  0.0 ${L} 0.0 ${L} units box
region             box block 0.0 0.0005  0.0 ${L} 0.0 ${L} units box
region             box block 0.0 0.0005  0.0 0.0005 0.0 ${L} units box
region             box block 0.0 0.0005  0.0 0.0005 0.0 0.0005 units box
read_data           poly3d.txt
  1 = max bonds/atom
  orthogonal box = (0 0 0) to (0.0005 0.0005 0.0005)
  1 by 2 by 3 processor grid
  8000 atoms
  8000 velocities
  2375 bonds
  2 = max # of 1-2 neighbors
  2 = max # of 1-3 neighbors
  4 = max # of 1-4 neighbors
  6 = max # of special neighbors

special_bonds   lj 1 1 1
  2 = max # of 1-2 neighbors
  2 = max # of 1-3 neighbors
  4 = max # of 1-4 neighbors
  6 = max # of special neighbors
bond_style fene
bond_coeff 1 3e-5 5e-5  0 0


mass               1 3.90625e-12
set                group all meso_rho 1000.0
  8000 settings made for meso_rho

# smothing length
variable          h equal 6.5e-5

# use Tait's EOS in combination with Morris' laminar viscosity.
# We set rho_0 = 1000 kg/m^3, c = 0.1 m/s, h = 6.5e-5 m.
# The dynamic viscosity is set to 1.0e-3 Pa s, corresponding to a kinematic viscosity of 1.0e-6 m^2/s

variable           sdpd_temp index 1e9
pair_style         hybrid  sdpd
pair_coeff         * *    sdpd 1000 1e-3 1.0e-3 ${h} ${sdpd_temp}
pair_coeff         * *    sdpd 1000 1e-3 1.0e-3 6.5e-05 ${sdpd_temp}
pair_coeff         * *    sdpd 1000 1e-3 1.0e-3 6.5e-05 1e9

compute            rho_peratom all meso_rho/atom
compute            e_peratom all meso_e/atom
compute            ke_peratom all ke/atom
compute            esph all reduce sum c_e_peratom
compute            ke all ke
compute            sdpd_kin all temp
variable           etot equal c_ke+c_esph

#compute            sdpd_kin all temp
#compute            rho_peratom all meso_rho/atom

# do full time integration for shear driver and fluid, but keep walls stationary
fix                integrate_fix_full all meso

dump               dump_id all custom 100 dump*.dat id type x y z vx vy vz c_rho_peratom
#dump the unwrapped coordinate of particles
dump               dumpreal_id all custom 100 dumpreal*.dat id type xu yu zu vx vy vz c_rho_peratom

dump_modify        dump_id first yes
dump_modify        dump_id sort id
dump_modify        dump_id pad 8
dump_modify        dumpreal_id first yes
dump_modify        dumpreal_id sort id
dump_modify        dumpreal_id pad 8

thermo_style       custom step c_sdpd_kin
thermo_modify      norm no
thermo             1
dump imgDump all image 100 image.*.jpg type type atom no bond atom 5e-6 adiam 1e-5 view 60 60 zoom 1.3  box yes 0.01
dump_modify        imgDump pad 9


neighbor           3.0e-6 bin
timestep           1e-6
run                40000
WARNING: Use special bonds = 0,1,1 with bond style fene (bond_fene.cpp:189)
Memory usage per processor = 3.68137 Mbytes
Step sdpd_kin 
       0            0 
       1    615085.68 
       2      1838883 
       3    3035166.1 
       4    4240434.2 
       5    5446042.3 
       6    6679119.7 
       7    7924571.7 
       8    9163969.6 
       9     10376895 
      10     11556624 
      11     12823505 
      12     14116973 
      13     15295346 
      14     16468496 
      15     17728774 
      16     18959658 
      17     20202911 
      18     21445318 
      19     22637291 
      20     23810424 
      21     25004536 
      22     26266336 
      23     27502313 
      24     28714072 
      25     29938119 
      26     31259616 
      27     32601553 
      28     33769600 
      29     34956454 
      30     36168312 
      31     37426740 
      32     38672810 
      33     39835138 
      34     40964687 
      35     42103829 
      36     43346103 
      37     44684226 
      38     45967845 
      39     47178061 
      40     48471836 
      41     49755902 
      42     51065406 
      43     52340569 
      44     53423702 
      45     54528016 
      46     55630282 
      47     56737318 
      48     57894134 
      49     59091939 
      50     60238084 
      51     61527322 
      52     62885307 
      53     64092987 
      54     65446160 
      55     66854113 
      56     68194350 
      57     69430875 
      58     70602627 
      59     71769635 
      60     72920763 
      61     74091835 
      62     75228986 
      63     76458425 
      64     77802803 
      65     79097618 
      66     80376406 
      67     81655016 
      68     82887975 
      69     84132682 
      70     85400432 
      71     86649752 
      72     87804984 
      73     88927171 
      74     90108983 
      75     91333456 
      76     92695019 
      77     94009824 
      78     95149360 
      79     96156487 
      80     97245074 
      81     98555392 
      82     99972420 
      83 1.0126218e+08 
      84 1.0226565e+08 
      85 1.0320803e+08 
      86 1.0433331e+08 
      87 1.0561728e+08 
      88 1.0682843e+08 
      89 1.0800206e+08 
      90 1.0921213e+08 
      91 1.1059166e+08 
      92 1.118861e+08 
      93 1.1296645e+08 
      94 1.140734e+08 
      95 1.1508516e+08 
      96 1.1606372e+08 
      97 1.1723673e+08 
      98 1.1849797e+08 
      99 1.1958309e+08 
     100 1.2069141e+08 
     101 1.2185793e+08 
     102 1.2298681e+08 
     103 1.2423227e+08 
     104 1.2550365e+08 
     105 1.2649898e+08 
     106 1.2752354e+08 
     107 1.288018e+08 
     108 1.2993504e+08 
     109 1.3101416e+08 
     110 1.3200084e+08 
     111 1.3304298e+08 
     112 1.3431004e+08 
     113 1.354469e+08 
     114 1.3646321e+08 
     115 1.3762263e+08 
     116 1.3883311e+08 
     117 1.3997328e+08 
     118 1.4115858e+08 
     119 1.4234108e+08 
     120 1.4347897e+08 
     121 1.4466368e+08 
     122 1.4582785e+08 
     123 1.468714e+08 
     124 1.4806091e+08 
     125 1.4923068e+08 
     126 1.5016091e+08 
     127  1.51246e+08 
     128 1.524073e+08 
     129 1.5341565e+08 
     130 1.5424975e+08 
     131 1.5521588e+08 
     132 1.5642861e+08 
     133 1.5749346e+08 
     134 1.5850015e+08 
     135 1.5963084e+08 
     136 1.6072569e+08 
     137 1.6173811e+08 
     138 1.6273668e+08 
     139 1.6369397e+08 
     140 1.649028e+08 
     141 1.6633919e+08 
     142 1.675449e+08 
     143 1.6839695e+08 
     144 1.6944106e+08 
     145 1.7072603e+08 
     146 1.7183322e+08 
     147 1.7290455e+08 
     148 1.7410787e+08 
     149 1.7536944e+08 
     150 1.7655111e+08 
     151 1.7763608e+08 
     152 1.7878795e+08 
     153 1.7999208e+08 
     154 1.8110242e+08 
     155 1.819574e+08 
     156 1.8287214e+08 
     157 1.839735e+08 
     158 1.8496531e+08 
     159 1.8589083e+08 
     160 1.8679955e+08 
     161 1.8776867e+08 
     162 1.8861373e+08 
     163 1.8935337e+08 
     164 1.9026267e+08 
     165 1.9133075e+08 
     166 1.9244809e+08 
     167 1.9361223e+08 
     168 1.9451379e+08 
     169 1.9543002e+08 
     170 1.9642556e+08 
     171 1.9722498e+08 
     172 1.9816229e+08 
     173 1.991173e+08 
     174 2.0001907e+08 
     175 2.0115997e+08 
     176 2.0219596e+08 
     177 2.0313814e+08 
     178 2.0416565e+08 
     179 2.0514313e+08 
     180 2.0611571e+08 
     181 2.0700607e+08 
     182 2.0784839e+08 
     183 2.0867376e+08 
     184 2.0971415e+08 
     185 2.1068261e+08 
     186  2.11534e+08 
     187 2.1250585e+08 
     188 2.1359339e+08 
     189 2.1469356e+08 
     190 2.1541514e+08 
     191 2.1610803e+08 
     192 2.1676645e+08 
     193 2.1757237e+08 
     194 2.1876821e+08 
     195 2.1980952e+08 
     196 2.2058194e+08 
     197 2.2132355e+08 
     198 2.2218979e+08 
     199 2.2303838e+08 
     200 2.2393882e+08 
     201 2.2494343e+08 
     202 2.2604341e+08 
     203 2.2698461e+08 
     204 2.2764401e+08 
     205 2.284372e+08 
     206 2.2934481e+08 
     207 2.3019168e+08 
     208 2.3101909e+08 
     209 2.319204e+08 
     210 2.3282422e+08 
     211 2.3353182e+08 
     212 2.3411097e+08 
     213 2.3478092e+08 
     214 2.3556797e+08 
     215 2.3632775e+08 
     216 2.3719797e+08 
     217 2.3821751e+08 
     218 2.3912477e+08 
     219 2.4006903e+08 
     220 2.4090887e+08 
     221 2.4167968e+08 
     222 2.4247311e+08 
     223 2.432478e+08 
     224 2.4400925e+08 
     225 2.4497593e+08 
     226 2.4574849e+08 
     227 2.4664466e+08 
     228 2.4790895e+08 
     229 2.4868885e+08 
     230 2.4926683e+08 
     231 2.5037051e+08 
     232 2.5152063e+08 
     233 2.523964e+08 
     234 2.5325081e+08 
     235 2.5417452e+08 
     236 2.5521473e+08 
     237 2.5627025e+08 
     238 2.573013e+08 
     239 2.5809051e+08 
     240 2.5872884e+08 
     241 2.5949899e+08 
     242 2.6040471e+08 
     243 2.6132211e+08 
     244 2.6214156e+08 
     245 2.6293195e+08 
     246 2.6370216e+08 
     247 2.6465203e+08 
     248 2.6557495e+08 
     249 2.6613054e+08 
     250 2.6672378e+08 
     251 2.6739281e+08 
     252 2.6805646e+08 
     253  2.68834e+08 
     254 2.6955016e+08 
     255 2.7030595e+08 
     256 2.7115426e+08 
     257 2.7185403e+08 
     258 2.7270625e+08 
     259 2.7353625e+08 
     260 2.7438816e+08 
     261 2.7509604e+08 
     262 2.7565651e+08 
     263 2.765397e+08 
     264 2.7734142e+08 
     265 2.7802537e+08 
     266 2.7891758e+08 
     267 2.7972995e+08 
     268 2.8050426e+08 
     269 2.8112093e+08 
     270 2.816627e+08 
     271 2.8267512e+08 
     272 2.8386115e+08 
     273 2.8470014e+08 
     274 2.8543091e+08 
     275 2.8648626e+08 
     276 2.8743609e+08 
     277 2.8832894e+08 
     278 2.8902165e+08 
     279 2.8953763e+08 
     280 2.9028627e+08 
     281 2.9111749e+08 
     282 2.9190342e+08 
     283 2.9268775e+08 
     284 2.9360125e+08 
     285 2.9454651e+08 
     286 2.9552509e+08 
     287 2.9629404e+08 
     288 2.9693643e+08 
     289 2.9789689e+08 
     290 2.9892115e+08 
     291 2.9973356e+08 
     292 3.0059511e+08 
     293 3.0143052e+08 
     294 3.0222073e+08 
     295 3.0294331e+08 
     296 3.0362931e+08 
     297 3.0473141e+08 
     298 3.0594322e+08 
     299 3.0689036e+08 
     300 3.0778249e+08 
     301 3.0850363e+08 
     302 3.091594e+08 
     303 3.0966627e+08 
     304 3.1011194e+08 
     305 3.1095761e+08 
     306 3.1164648e+08 
     307 3.1212857e+08 
     308 3.1297524e+08 
     309 3.1390172e+08 
     310 3.1473438e+08 
     311 3.1582576e+08 
     312 3.1714904e+08 
     313 3.1827089e+08 
     314 3.1903632e+08 
     315 3.1968854e+08 
     316 3.204247e+08 
     317 3.2142685e+08 
     318 3.2222321e+08 
     319 3.2270398e+08 
     320 3.2357476e+08 
     321 3.246221e+08 
     322 3.2550696e+08 
     323 3.2646777e+08 
     324 3.2749263e+08 
     325 3.2841427e+08 
     326 3.2933578e+08 
     327 3.302998e+08 
     328 3.3121846e+08 
     329 3.3218888e+08 
     330 3.3323916e+08 
     331 3.3404926e+08 
     332 3.3480951e+08 
     333 3.3581961e+08 
     334 3.3683001e+08 
     335 3.3784555e+08 
     336 3.387862e+08 
     337 3.3961068e+08 
     338 3.4025119e+08 
     339 3.4107329e+08 
     340 3.4208446e+08 
     341 3.4290306e+08 
     342 3.4352398e+08 
     343 3.4432263e+08 
     344 3.4533288e+08 
     345 3.4618336e+08 
     346 3.4706072e+08 
     347 3.4789966e+08 
     348 3.4849947e+08 
     349 3.4920285e+08 
     350 3.4981318e+08 
     351 3.5016471e+08 
     352 3.5074516e+08 
     353 3.5150887e+08 
     354 3.5224839e+08 
     355 3.5333426e+08 
     356 3.5426791e+08 
     357 3.5507922e+08 
     358 3.5616713e+08 
     359 3.5689458e+08 
     360 3.5778902e+08 
     361 3.5886801e+08 
     362 3.5964911e+08 
     363 3.6040321e+08 
     364 3.6115212e+08 
     365 3.6201373e+08 
     366 3.6296603e+08 
     367 3.6376393e+08 
     368 3.6477245e+08 
     369 3.6597304e+08 
     370 3.6695128e+08 
     371 3.6770597e+08 
     372 3.6862113e+08 
     373 3.695647e+08 
     374 3.7050052e+08 
     375 3.7149465e+08 
     376 3.721157e+08 
     377 3.7267293e+08 
     378 3.7350582e+08 
     379 3.7414392e+08 
     380 3.7485664e+08 
     381 3.7606503e+08 
     382 3.771957e+08 
     383 3.7792682e+08 
     384 3.7849366e+08 
     385 3.7928686e+08 
     386 3.8023168e+08 
     387 3.8127086e+08 
     388 3.8251918e+08 
     389 3.8366243e+08 
     390 3.8444046e+08 
     391 3.8482779e+08 
     392 3.8529107e+08 
     393 3.860157e+08 
     394 3.8682825e+08 
     395  3.87608e+08 
     396 3.8874089e+08 
     397 3.899436e+08 
     398 3.9097041e+08 
     399 3.9215643e+08 
     400 3.9334236e+08 
     401 3.9457214e+08 
     402 3.9581057e+08 
     403 3.9672427e+08 
     404 3.9736654e+08 
     405 3.9820782e+08 
     406 3.9943676e+08 
     407 4.0038072e+08 
     408 4.0098703e+08 
     409 4.0150554e+08 
     410 4.0216727e+08 
     411 4.0297135e+08 
     412 4.0375626e+08 
     413 4.0467694e+08 
     414 4.0574939e+08 
     415 4.0678811e+08 
     416 4.0754434e+08 
     417 4.0833064e+08 
     418 4.0930873e+08 
     419 4.1009798e+08 
     420 4.1090548e+08 
     421 4.120718e+08 
     422 4.1315215e+08 
     423 4.1383138e+08 
     424 4.1420921e+08 
     425 4.1460433e+08 
     426 4.154488e+08 
     427 4.1647875e+08 
     428 4.1736992e+08 
     429 4.1840434e+08 
     430 4.1932337e+08 
     431 4.2018144e+08 
     432 4.2118568e+08 
     433 4.2223192e+08 
     434 4.2285923e+08 
     435 4.2355845e+08 
     436 4.2443913e+08 
     437 4.2510731e+08 
     438 4.2597855e+08 
     439 4.2693079e+08 
     440 4.2774397e+08 
     441 4.2838686e+08 
     442 4.2917655e+08 
     443 4.302007e+08 
     444 4.3087765e+08 
     445 4.3153211e+08 
     446 4.3245227e+08 
     447 4.3292615e+08 
     448 4.3349605e+08 
     449 4.3437508e+08 
     450 4.3533474e+08 
     451 4.3621803e+08 
     452 4.3688191e+08 
     453 4.3766637e+08 
     454 4.3854083e+08 
     455 4.3936122e+08 
     456 4.4008308e+08 
     457 4.4059165e+08 
     458 4.4095092e+08 
     459 4.417408e+08 
     460 4.4277904e+08 
     461 4.4371161e+08 
     462 4.4449762e+08 
     463 4.4532961e+08 
     464 4.4639206e+08 
     465 4.4756639e+08 
     466 4.4834787e+08 
     467 4.4917663e+08 
     468 4.5026384e+08 
     469 4.5099625e+08 
     470 4.5159492e+08 
     471 4.5232707e+08 
     472 4.5303766e+08 
     473 4.5407576e+08 
     474 4.5532611e+08 
     475 4.5627749e+08 
     476 4.5726321e+08 
     477 4.5812017e+08 
     478 4.5871715e+08 
     479 4.5913012e+08 
     480 4.5961048e+08 
     481 4.5992922e+08 
     482 4.6047637e+08 
     483 4.6120538e+08 
     484 4.618842e+08 
     485 4.6264005e+08 
     486 4.6289408e+08 
     487 4.6345898e+08 
     488 4.6458303e+08 
     489 4.6569108e+08 
     490 4.6651786e+08 
     491 4.6727299e+08 
     492 4.6819184e+08 
     493 4.6904981e+08 
     494 4.6972609e+08 
     495 4.7052352e+08 
     496 4.7122416e+08 
     497 4.7181939e+08 
     498 4.7248874e+08 
     499 4.7285672e+08 
     500 4.7305973e+08 
     501 4.7360908e+08 
     502 4.7452296e+08 
     503 4.7538641e+08 
     504 4.7596986e+08 
     505 4.7642383e+08 
     506 4.7712686e+08 
     507 4.7779232e+08 
     508 4.7824237e+08 
     509 4.7863349e+08 
     510 4.790522e+08 
     511 4.7963472e+08 
     512 4.8026625e+08 
     513 4.8072259e+08 
     514 4.8139049e+08 
     515 4.8242376e+08 
     516 4.8342497e+08 
     517 4.8443463e+08 
     518 4.8545975e+08 
     519 4.8642327e+08 
     520 4.8716084e+08 
     521 4.881299e+08 
     522 4.8907655e+08 
     523 4.8979717e+08 
     524  4.90926e+08 
     525 4.9204157e+08 
     526 4.9290311e+08 
     527 4.9370311e+08 
     528 4.944148e+08 
     529 4.948707e+08 
     530 4.9558387e+08 
     531 4.9658732e+08 
     532 4.9754056e+08 
     533 4.9823207e+08 
     534 4.9879956e+08 
     535 4.9985862e+08 
     536 5.0089725e+08 
     537 5.0170728e+08 
     538 5.027083e+08 
     539 5.0379014e+08 
     540 5.0469116e+08 
     541 5.052666e+08 
     542 5.0551999e+08 
     543 5.0608634e+08 
     544 5.0708333e+08 
     545 5.0811004e+08 
     546 5.0894185e+08 
     547 5.096505e+08 
     548 5.1054666e+08 
     549 5.1149885e+08 
     550 5.1264142e+08 
     551 5.1381999e+08 
     552 5.1469383e+08 
     553 5.1556744e+08 
     554 5.1660937e+08 
     555 5.1765623e+08 
     556 5.1839162e+08 
     557 5.1893022e+08 
     558 5.1955416e+08 
     559 5.2007048e+08 
     560 5.2054062e+08 
     561 5.2130109e+08 
     562 5.220863e+08 
     563 5.2287103e+08 
     564 5.2378887e+08 
     565 5.2460875e+08 
     566 5.2509701e+08 
     567 5.2573193e+08 
     568 5.267824e+08 
     569 5.2745781e+08 
     570 5.2803779e+08 
     571 5.2870453e+08 
     572 5.2914623e+08 
     573 5.2965552e+08 
     574 5.3028703e+08 
     575 5.3111806e+08 
     576 5.3200254e+08 
     577 5.3313399e+08 
     578 5.3402311e+08 
     579 5.3429768e+08 
     580 5.3473741e+08 
     581 5.3555879e+08 
     582 5.3624949e+08 
     583 5.366807e+08 
     584 5.3731025e+08 
     585 5.3797356e+08 
     586 5.3846729e+08 
     587 5.3906516e+08 
     588 5.3981333e+08 
     589 5.4052984e+08 
     590 5.4116464e+08 
     591 5.4181895e+08 
     592 5.4255241e+08 
     593 5.4352977e+08 
     594 5.4440714e+08 
     595 5.4501793e+08 
     596 5.4572001e+08 
     597 5.4644858e+08 
     598 5.4690922e+08 
     599 5.4727966e+08 
     600 5.4771162e+08 
     601 5.4838207e+08 
     602 5.492415e+08 
     603  5.50128e+08 
     604 5.5074705e+08 
     605 5.5097069e+08 
     606 5.5161189e+08 
     607 5.5247089e+08 
     608 5.5302342e+08 
     609 5.5356387e+08 
     610 5.5403007e+08 
     611 5.5440956e+08 
     612 5.5499339e+08 
     613 5.5577348e+08 
     614 5.5638454e+08 
     615 5.5721691e+08 
     616 5.5820002e+08 
     617 5.587427e+08 
     618 5.5940255e+08 
     619 5.5988725e+08 
     620 5.6052491e+08 
     621 5.611624e+08 
     622 5.6156005e+08 
     623 5.6228151e+08 
     624 5.6284457e+08 
     625 5.6354089e+08 
     626 5.6444318e+08 
     627 5.6506306e+08 
     628 5.6576022e+08 
     629 5.6625578e+08 
     630 5.6654941e+08 
     631 5.6700841e+08 
     632 5.6783989e+08 
     633 5.693053e+08 
     634 5.7054448e+08 
     635 5.7135628e+08 
     636 5.7197814e+08 
     637 5.7279404e+08 
     638 5.7360315e+08 
     639 5.742651e+08 
     640 5.7495706e+08 
     641 5.7555369e+08 
     642 5.7637933e+08 
     643 5.7719557e+08 
     644 5.7815151e+08 
     645 5.7910928e+08 
     646 5.7980492e+08 
     647 5.8053558e+08 
     648 5.8108598e+08 
     649 5.8158369e+08 
     650 5.8211007e+08 
     651 5.8262749e+08 
     652 5.8325621e+08 
     653 5.8380481e+08 
     654 5.8418088e+08 
     655 5.8458897e+08 
     656 5.8511362e+08 
     657 5.8574538e+08 
     658 5.8657113e+08 
     659 5.8718477e+08 
     660 5.8782872e+08 
     661 5.8869388e+08 
     662 5.8963832e+08 
     663 5.905656e+08 
     664 5.9136849e+08 
     665 5.9209763e+08 
     666 5.9289342e+08 
     667  5.93661e+08 
     668 5.9418454e+08 
     669 5.9488507e+08 
     670 5.9552486e+08 
     671 5.9582535e+08 
     672 5.9626594e+08 
     673 5.9687248e+08 
     674 5.9754625e+08 
     675 5.9825797e+08 
     676 5.9862027e+08 
     677 5.9885976e+08 
     678 5.9966946e+08 
     679 6.0044132e+08 
     680 6.0059033e+08 
     681 6.0081745e+08 
     682 6.0113633e+08 
     683 6.0158852e+08 
     684 6.0201283e+08 
     685 6.0245522e+08 
     686 6.0335028e+08 
     687 6.0428094e+08 
     688 6.0504202e+08 
     689 6.0581294e+08 
     690 6.0644733e+08 
     691  6.06627e+08 
     692 6.0712622e+08 
     693 6.0808033e+08 
     694 6.0872184e+08 
     695 6.0912076e+08 
     696 6.0957364e+08 
     697 6.100604e+08 
     698 6.1089734e+08 
     699 6.1196795e+08 
     700 6.129089e+08 
     701 6.1370746e+08 
     702 6.1456602e+08 
     703 6.1530079e+08 
     704 6.1608081e+08 
     705 6.1711251e+08 
     706 6.1793242e+08 
     707 6.187247e+08 
     708 6.1956708e+08 
     709 6.2041685e+08 
     710  6.21064e+08 
     711 6.2122129e+08 
     712 6.2148107e+08 
     713 6.2229637e+08 
     714 6.2369704e+08 
     715 6.2471237e+08 
     716 6.2498931e+08 
     717 6.2565096e+08 
     718 6.2642714e+08 
     719 6.2720634e+08 
     720 6.2788822e+08 
     721 6.2840349e+08 
     722 6.2915732e+08 
     723 6.2979891e+08 
     724 6.3031797e+08 
     725 6.3101876e+08 
     726 6.3220402e+08 
     727 6.3351478e+08 
     728 6.3411299e+08 
     729 6.3437752e+08 
     730 6.3474844e+08 
     731 6.3504629e+08 
     732 6.3570879e+08 
     733 6.3642378e+08 
     734 6.3680155e+08 
     735 6.3748783e+08 
     736 6.3830343e+08 
     737 6.3861732e+08 
     738 6.3879779e+08 
     739 6.3924956e+08 
     740 6.3950068e+08 
     741 6.3976185e+08 
     742 6.3993287e+08 
     743 6.4013919e+08 
     744 6.409766e+08 
     745 6.418133e+08 
     746 6.4268156e+08 
     747 6.4362151e+08 
     748 6.4428876e+08 
     749 6.4487038e+08 
     750 6.453301e+08 
     751 6.4581528e+08 
     752 6.4659272e+08 
     753 6.470573e+08 
     754 6.4751899e+08 
     755 6.4828533e+08 
     756 6.4889376e+08 
     757 6.4949104e+08 
     758 6.4996055e+08 
     759 6.5099586e+08 
     760 6.5225047e+08 
     761 6.5252879e+08 
     762 6.525686e+08 
     763 6.5335055e+08 
     764 6.5424092e+08 
     765 6.5464787e+08 
     766 6.550455e+08 
     767 6.553564e+08 
     768 6.5583233e+08 
     769 6.5644765e+08 
     770 6.5672832e+08 
     771 6.5712207e+08 
     772 6.5770726e+08 
     773 6.5822352e+08 
     774 6.5861476e+08 
     775 6.5920027e+08 
     776 6.6018037e+08 
     777 6.6115262e+08 
     778 6.6176112e+08 
     779 6.6217089e+08 
     780 6.6276912e+08 
     781 6.6323001e+08 
     782 6.635934e+08 
     783 6.6413929e+08 
     784 6.6485598e+08 
     785 6.6550865e+08 
     786 6.6605867e+08 
     787 6.6669748e+08 
     788 6.6704248e+08 
     789 6.6750401e+08 
     790 6.6797118e+08 
     791 6.6819179e+08 
     792 6.6836149e+08 
     793 6.6890699e+08 
     794 6.6993897e+08 
     795  6.70778e+08 
     796 6.7197636e+08 
     797 6.733231e+08 
     798 6.7456975e+08 
     799 6.7577843e+08 
     800 6.7646601e+08 
     801 6.7704647e+08 
     802 6.7774802e+08 
     803 6.7832058e+08 
     804 6.7840126e+08 
     805 6.7847227e+08 
     806 6.7878678e+08 
     807 6.792341e+08 
     808 6.7952161e+08 
     809 6.7968271e+08 
     810 6.8051396e+08 
     811 6.8131132e+08 
     812 6.8152264e+08 
     813 6.8151594e+08 
     814 6.819925e+08 
     815 6.8289182e+08 
     816 6.8342672e+08 
     817 6.8395738e+08 
     818 6.8498049e+08 
     819 6.8565029e+08 
     820 6.858413e+08 
     821 6.8616968e+08 
     822 6.8649778e+08 
     823 6.8659295e+08 
     824 6.8671246e+08 
     825 6.8702383e+08 
     826 6.8701504e+08 
     827 6.8707663e+08 
     828 6.8791766e+08 
     829 6.8857535e+08 
     830 6.8862443e+08 
     831 6.8887967e+08 
     832 6.8941005e+08 
     833 6.8985501e+08 
     834 6.9007127e+08 
     835  6.90058e+08 
     836 6.9049044e+08 
     837 6.9132905e+08 
     838 6.9208325e+08 
     839 6.9299762e+08 
     840 6.9372503e+08 
     841  6.94185e+08 
     842 6.9464789e+08 
     843 6.9467157e+08 
     844 6.9475761e+08 
     845 6.9522452e+08 
     846 6.9591631e+08 
     847 6.9644934e+08 
     848 6.9651023e+08 
     849 6.9692931e+08 
     850 6.9749188e+08 
     851 6.9812953e+08 
     852 6.9853432e+08 
     853 6.9855053e+08 
     854 6.9912843e+08 
     855 6.997288e+08 
     856 7.0021575e+08 
     857 7.0109997e+08 
     858 7.0154489e+08 
     859 7.0172555e+08 
     860 7.0232756e+08 
     861 7.0260049e+08 
     862 7.0286714e+08 
     863 7.0370923e+08 
     864 7.0455249e+08 
     865 7.052777e+08 
     866 7.0586675e+08 
     867 7.0641088e+08 
     868 7.0699801e+08 
     869 7.0752408e+08 
     870 7.0809444e+08 
     871 7.0852158e+08 
     872 7.0869064e+08 
     873 7.0881793e+08 
     874 7.0902612e+08 
     875 7.0936948e+08 
     876  7.09949e+08 
     877  7.10656e+08 
     878 7.109215e+08 
     879 7.1121203e+08 
     880 7.1180987e+08 
     881 7.1245122e+08 
     882 7.1303659e+08 
     883 7.1359057e+08 
     884 7.1384944e+08 
     885 7.1395424e+08 
     886 7.1450067e+08 
     887 7.1502363e+08 
     888 7.1504636e+08 
     889 7.1501437e+08 
     890 7.1553714e+08 
     891 7.1601441e+08 
     892 7.1615654e+08 
     893 7.1616073e+08 
     894 7.1627289e+08 
     895 7.1697509e+08 
     896 7.1775865e+08 
     897 7.1830395e+08 
     898 7.1898314e+08 
     899 7.1939093e+08 
     900 7.197631e+08 
     901 7.2041396e+08 
     902 7.2107101e+08 
     903 7.2165249e+08 
     904 7.2195212e+08 
     905 7.2218563e+08 
     906 7.2254632e+08 
     907 7.2316894e+08 
     908 7.2402672e+08 
     909 7.2508385e+08 
     910 7.2594051e+08 
     911 7.2613999e+08 
     912 7.2611574e+08 
     913 7.2660689e+08 
     914 7.2700931e+08 
     915 7.2711987e+08 
     916 7.2765962e+08 
     917 7.2847288e+08 
     918 7.2916085e+08 
     919 7.296447e+08 
     920 7.3019488e+08 
     921 7.3067912e+08 
     922 7.3124427e+08 
     923 7.3176428e+08 
     924 7.3215467e+08 
     925 7.325167e+08 
     926 7.3255406e+08 
     927 7.3275429e+08 
     928 7.3341388e+08 
     929 7.3394768e+08 
     930 7.3448925e+08 
     931 7.3500406e+08 
     932 7.3534212e+08 
     933 7.3561583e+08 
     934 7.3590462e+08 
     935 7.3607583e+08 
     936 7.3588268e+08 
     937 7.3614403e+08 
     938 7.3662574e+08 
     939 7.3713693e+08 
     940 7.3790179e+08 
     941 7.3840986e+08 
     942 7.3851205e+08 
     943 7.3884408e+08 
     944 7.3981567e+08 
     945 7.4057782e+08 
     946 7.4063517e+08 
     947 7.4096803e+08 
     948 7.4176045e+08 
     949 7.4271383e+08 
     950 7.432364e+08 
     951 7.4304519e+08 
     952 7.4282592e+08 
     953 7.4287514e+08 
     954 7.4335572e+08 
     955 7.4370754e+08 
     956 7.4408235e+08 
     957 7.4460768e+08 
     958 7.4481164e+08 
     959 7.4493375e+08 
     960 7.4529157e+08 
     961 7.4570463e+08 
     962 7.4603107e+08 
     963 7.4632535e+08 
     964 7.4666865e+08 
     965 7.471001e+08 
     966 7.4729845e+08 
     967 7.4772265e+08 
     968 7.4829984e+08 
     969 7.4868245e+08 
     970 7.4933559e+08 
     971 7.4994358e+08 
     972 7.501269e+08 
     973 7.5017579e+08 
     974 7.5026391e+08 
     975 7.5085616e+08 
     976 7.5196256e+08 
     977 7.5249733e+08 
     978 7.5255449e+08 
     979 7.5287428e+08 
     980 7.531086e+08 
     981 7.5327171e+08 
     982 7.5362539e+08 
     983 7.5396047e+08 
     984 7.5465433e+08 
     985 7.5558161e+08 
     986 7.5666633e+08 
     987 7.5749995e+08 
     988 7.5803532e+08 
     989 7.5844839e+08 
     990 7.5885532e+08 
     991 7.5921763e+08 
     992 7.5971833e+08 
     993 7.604677e+08 
     994 7.6087643e+08 
     995 7.6106097e+08 
     996 7.6118714e+08 
     997 7.6155291e+08 
     998 7.6183264e+08 
     999 7.619081e+08 
    1000 7.6229142e+08 
    1001 7.6316588e+08 
    1002 7.6379671e+08 
    1003 7.645955e+08 
    1004 7.6550215e+08 
    1005 7.6597651e+08 
    1006  7.66972e+08 
    1007 7.6779146e+08 
    1008 7.6795067e+08 
    1009 7.6857065e+08 
    1010 7.6916666e+08 
    1011 7.6929781e+08 
    1012 7.6946224e+08 
    1013 7.6924409e+08 
    1014 7.6928963e+08 
    1015 7.6955791e+08 
    1016 7.7005026e+08 
    1017 7.7110299e+08 
    1018 7.7186737e+08 
    1019 7.7237157e+08 
    1020 7.729121e+08 
    1021 7.7326107e+08 
    1022 7.7336791e+08 
    1023 7.7348054e+08 
    1024 7.7382588e+08 
    1025 7.7432342e+08 
    1026 7.745162e+08 
    1027 7.750687e+08 
    1028 7.7583882e+08 
    1029 7.7638294e+08 
    1030 7.7697381e+08 
    1031 7.7756493e+08 
    1032 7.7777633e+08 
    1033 7.7792698e+08 
    1034 7.7839448e+08 
    1035 7.7891765e+08 
    1036 7.7938945e+08 
    1037 7.7936779e+08 
    1038 7.7912045e+08 
    1039 7.7894808e+08 
    1040 7.789406e+08 
    1041 7.7927134e+08 
    1042 7.7993063e+08 
    1043 7.8000441e+08 
    1044 7.7960602e+08 
    1045 7.7956844e+08 
    1046 7.7987911e+08 
    1047 7.8047832e+08 
    1048 7.8093803e+08 
    1049 7.8157105e+08 
    1050 7.8259649e+08 
    1051 7.8339386e+08 
    1052 7.8410009e+08 
    1053 7.8432661e+08 
    1054 7.8381833e+08 
    1055 7.835636e+08 
    1056 7.8364797e+08 
    1057 7.8391344e+08 
    1058 7.8424151e+08 
    1059 7.8460832e+08 
    1060 7.8479298e+08 
    1061 7.8463659e+08 
    1062 7.8503338e+08 
    1063 7.8592527e+08 
    1064 7.8657011e+08 
    1065 7.8678031e+08 
    1066 7.8671615e+08 
    1067 7.8697991e+08 
    1068 7.8756092e+08 
    1069 7.8817833e+08 
    1070 7.8870718e+08 
    1071 7.8902411e+08 
    1072 7.8933501e+08 
    1073 7.8981827e+08 
    1074 7.9035781e+08 
    1075 7.9080265e+08 
    1076 7.9145992e+08 
    1077 7.9253913e+08 
    1078 7.9331183e+08 
    1079 7.9352662e+08 
    1080 7.9361771e+08 
    1081 7.936635e+08 
    1082 7.9361557e+08 
    1083 7.9387758e+08 
    1084 7.9457555e+08 
    1085 7.9492333e+08 
    1086 7.9506356e+08 
    1087 7.9547429e+08 
    1088 7.9611386e+08 
    1089 7.9636796e+08 
    1090 7.9629078e+08 
    1091 7.9660233e+08 
    1092 7.9696331e+08 
    1093 7.9721201e+08 
    1094 7.9787679e+08 
    1095 7.9871718e+08 
    1096 7.9939449e+08 
    1097 7.9983801e+08 
    1098 8.0012806e+08 
    1099 8.0024728e+08 
    1100 8.0005025e+08 
    1101 8.0042316e+08 
    1102 8.0122996e+08 
    1103 8.0164116e+08 
    1104 8.0198102e+08 
    1105 8.0251327e+08 
    1106 8.0324614e+08 
    1107 8.0365411e+08 
    1108 8.0367128e+08 
    1109 8.0386102e+08 
    1110 8.0403981e+08 
    1111 8.0415874e+08 
    1112 8.0461112e+08 
    1113 8.0509303e+08 
    1114 8.0523318e+08 
    1115 8.057329e+08 
    1116 8.0675355e+08 
    1117 8.0764388e+08 
    1118 8.0825051e+08 
    1119 8.083831e+08 
    1120 8.0880439e+08 
    1121 8.0978995e+08 
    1122 8.1072092e+08 
    1123 8.1147306e+08 
    1124  8.11844e+08 
    1125 8.1186985e+08 
    1126 8.120772e+08 
    1127 8.127736e+08 
    1128 8.1300832e+08 
    1129 8.1295774e+08 
    1130 8.1319571e+08 
    1131 8.1334893e+08 
    1132 8.1346435e+08 
    1133 8.137575e+08 
    1134 8.1426924e+08 
    1135 8.1467849e+08 
    1136 8.1516478e+08 
    1137 8.1597789e+08 
    1138 8.1675735e+08 
    1139 8.171259e+08 
    1140 8.1764365e+08 
    1141 8.1820587e+08 
    1142 8.1875039e+08 
    1143 8.1930662e+08 
    1144  8.20107e+08 
    1145 8.2081545e+08 
    1146 8.208304e+08 
    1147 8.2093375e+08 
    1148 8.2126471e+08 
    1149 8.2172055e+08 
    1150 8.2202875e+08 
    1151 8.2176301e+08 
    1152 8.2164002e+08 
    1153 8.2221369e+08 
    1154 8.2259456e+08 
    1155 8.2266478e+08 
    1156 8.2308552e+08 
    1157 8.2343558e+08 
    1158 8.234987e+08 
    1159 8.2399375e+08 
    1160 8.2531424e+08 
    1161 8.2649488e+08 
    1162 8.2676406e+08 
    1163 8.2724656e+08 
    1164 8.2775985e+08 
    1165 8.2845009e+08 
    1166 8.2943672e+08 
    1167 8.2993777e+08 
    1168 8.3052467e+08 
    1169 8.310285e+08 
    1170 8.3151608e+08 
    1171 8.3227494e+08 
    1172 8.3274272e+08 
    1173 8.3274728e+08 
    1174 8.3299584e+08 
    1175 8.3363958e+08 
    1176 8.3382676e+08 
    1177 8.3374306e+08 
    1178 8.3423663e+08 
    1179 8.3448079e+08 
    1180 8.3466224e+08 
    1181 8.3526992e+08 
    1182 8.3574483e+08 
    1183 8.3573442e+08 
    1184 8.3574506e+08 
    1185 8.3609226e+08 
    1186 8.362052e+08 
    1187 8.3641641e+08 
    1188 8.3659121e+08 
    1189 8.3680952e+08 
    1190 8.3700626e+08 
    1191 8.3692565e+08 
    1192 8.3725534e+08 
    1193 8.3750975e+08 
    1194 8.3771066e+08 
    1195 8.3842494e+08 
    1196 8.389466e+08 
    1197 8.390888e+08 
    1198  8.39308e+08 
    1199 8.390729e+08 
    1200 8.3892189e+08 
    1201 8.3970687e+08 
    1202 8.4043071e+08 
    1203 8.4074268e+08 
    1204 8.411575e+08 
    1205 8.4180426e+08 
    1206 8.4264945e+08 
    1207 8.4325465e+08 
    1208 8.435686e+08 
    1209 8.4402932e+08 
    1210 8.4457114e+08 
    1211 8.4516628e+08 
    1212 8.4617049e+08 
    1213 8.4711905e+08 
    1214 8.4763868e+08 
    1215 8.4777848e+08 
    1216 8.4812129e+08 
    1217 8.4854492e+08 
    1218 8.4870516e+08 
    1219 8.4900313e+08 
    1220 8.4902541e+08 
    1221 8.4914896e+08 
    1222 8.4912243e+08 
    1223 8.4877674e+08 
    1224 8.4877752e+08 
    1225  8.49251e+08 
    1226 8.4997938e+08 
    1227 8.5048121e+08 
    1228 8.5096353e+08 
    1229 8.517583e+08 
    1230 8.5264278e+08 
    1231 8.5318678e+08 
    1232 8.5306128e+08 
    1233 8.5330453e+08 
    1234 8.5406705e+08 
    1235 8.5471899e+08 
    1236 8.5551198e+08 
    1237 8.5546043e+08 
    1238 8.5532739e+08 
    1239 8.555072e+08 
    1240 8.5517326e+08 
    1241 8.554939e+08 
    1242 8.5615626e+08 
    1243 8.5635227e+08 
    1244 8.5600037e+08 
    1245 8.5558649e+08 
    1246 8.5554725e+08 
    1247 8.5541316e+08 
    1248 8.5539189e+08 
    1249 8.5566608e+08 
    1250 8.5572335e+08 
    1251 8.5561004e+08 
    1252 8.5592428e+08 
    1253 8.5645201e+08 
    1254 8.5687366e+08 
    1255 8.5725212e+08 
    1256 8.5789317e+08 
    1257 8.5875537e+08 
    1258 8.5906921e+08 
    1259 8.5891347e+08 
    1260 8.5881873e+08 
    1261 8.5875616e+08 
    1262 8.5891128e+08 
    1263 8.5878437e+08 
    1264 8.5847254e+08 
    1265 8.5852698e+08 
    1266 8.5856601e+08 
    1267 8.5836246e+08 
    1268 8.5837542e+08 
    1269 8.5829636e+08 
    1270 8.5823945e+08 
    1271 8.5850837e+08 
    1272 8.5844664e+08 
    1273 8.5821263e+08 
    1274 8.5875885e+08 
    1275 8.5960794e+08 
    1276 8.5996589e+08 
    1277 8.6017821e+08 
    1278 8.6039239e+08 
    1279 8.6065708e+08 
    1280 8.6149358e+08 
    1281 8.6216029e+08 
    1282 8.6228335e+08 
    1283 8.6301271e+08 
    1284 8.6391231e+08 
    1285 8.643424e+08 
    1286  8.64785e+08 
    1287 8.6512766e+08 
    1288 8.6544059e+08 
    1289 8.6576869e+08 
    1290 8.6571772e+08 
    1291 8.6593872e+08 
    1292 8.662889e+08 
    1293 8.6629965e+08 
    1294 8.6653512e+08 
    1295 8.671349e+08 
    1296 8.6789675e+08 
    1297 8.686062e+08 
    1298 8.690958e+08 
    1299 8.6900508e+08 
    1300 8.6888791e+08 
    1301 8.6898339e+08 
    1302 8.6931495e+08 
    1303 8.6949903e+08 
    1304 8.6950294e+08 
    1305 8.7013494e+08 
    1306 8.7095694e+08 
    1307 8.7104257e+08 
    1308 8.7106371e+08 
    1309 8.7141991e+08 
    1310 8.7128196e+08 
    1311 8.7102745e+08 
    1312 8.7105263e+08 
    1313 8.715684e+08 
    1314 8.7230585e+08 
    1315 8.728579e+08 
    1316 8.7314147e+08 
    1317 8.7333964e+08 
    1318 8.7384909e+08 
    1319 8.7436553e+08 
    1320 8.7451596e+08 
    1321 8.7440752e+08 
    1322 8.7415952e+08 
    1323 8.7385406e+08 
    1324 8.7364333e+08 
    1325 8.7359159e+08 
    1326 8.7377236e+08 
    1327 8.743878e+08 
    1328 8.7498052e+08 
    1329 8.7550976e+08 
    1330 8.7577998e+08 
    1331 8.757741e+08 
    1332 8.7621162e+08 
    1333 8.7709943e+08 
    1334 8.7821414e+08 
    1335 8.7868469e+08 
    1336 8.7886616e+08 
    1337 8.7909634e+08 
    1338 8.7899133e+08 
    1339 8.7898596e+08 
    1340 8.7925509e+08 
    1341 8.7947238e+08 
    1342 8.795921e+08 
    1343 8.795574e+08 
    1344 8.7945172e+08 
    1345 8.7952937e+08 
    1346 8.7970761e+08 
    1347 8.8001733e+08 
    1348 8.805446e+08 
    1349 8.8128233e+08 
    1350 8.8196713e+08 
    1351 8.8237018e+08 
    1352 8.8276955e+08 
    1353 8.8309581e+08 
    1354 8.8312711e+08 
    1355 8.8318292e+08 
    1356 8.837691e+08 
    1357 8.8443317e+08 
    1358 8.8472901e+08 
    1359 8.8476978e+08 
    1360 8.8508821e+08 
    1361 8.8544774e+08 
    1362 8.8545721e+08 
    1363 8.8582296e+08 
    1364 8.8587089e+08 
    1365 8.8569282e+08 
    1366 8.8583511e+08 
    1367 8.8621237e+08 
    1368 8.8678711e+08 
    1369 8.8673784e+08 
    1370 8.8639701e+08 
    1371 8.8634235e+08 
    1372 8.8661462e+08 
    1373 8.870335e+08 
    1374 8.8723547e+08 
    1375 8.8725941e+08 
    1376 8.8715126e+08 
    1377 8.8750539e+08 
    1378 8.8808458e+08 
    1379 8.8861526e+08 
    1380 8.8930777e+08 
    1381 8.9016049e+08 
    1382 8.9069393e+08 
    1383 8.9095117e+08 
    1384 8.9117557e+08 
    1385 8.9093336e+08 
    1386 8.9093436e+08 
    1387 8.9146588e+08 
    1388 8.9175118e+08 
    1389  8.91947e+08 
    1390 8.9228321e+08 
    1391 8.9268733e+08 
    1392 8.9329757e+08 
    1393 8.9381491e+08 
    1394 8.9429113e+08 
    1395 8.9439256e+08 
    1396 8.9412798e+08 
    1397 8.9392902e+08 
    1398 8.9388358e+08 
    1399 8.9381563e+08 
    1400 8.9372061e+08 
    1401 8.9421112e+08 
    1402 8.9454114e+08 
    1403 8.9453051e+08 
    1404 8.9460205e+08 
    1405 8.9457334e+08 
    1406 8.9454109e+08 
    1407 8.9455821e+08 
    1408 8.9449655e+08 
    1409 8.9475618e+08 
    1410 8.9480142e+08 
    1411 8.9455938e+08 
    1412 8.9510702e+08 
    1413 8.9575899e+08 
    1414 8.9623257e+08 
    1415 8.9682053e+08 
    1416 8.9725726e+08 
    1417 8.9760488e+08 
    1418 8.9767249e+08 
    1419 8.9758256e+08 
    1420 8.9781432e+08 
    1421 8.982465e+08 
    1422 8.9907191e+08 
    1423 8.9971911e+08 
    1424 9.0004864e+08 
    1425 9.0071266e+08 
    1426 9.0103279e+08 
    1427 9.0110092e+08 
    1428 9.0130892e+08 
    1429 9.0145668e+08 
    1430 9.0173176e+08 
    1431 9.0197533e+08 
    1432 9.0183104e+08 
    1433 9.0191863e+08 
    1434 9.0187639e+08 
    1435 9.0154252e+08 
    1436 9.0207576e+08 
    1437 9.0244062e+08 
    1438 9.0277988e+08 
    1439 9.0329332e+08 
    1440 9.0374866e+08 
    1441 9.0420269e+08 
    1442 9.0415686e+08 
    1443 9.0421555e+08 
    1444 9.0413743e+08 
    1445 9.0455092e+08 
    1446 9.0516026e+08 
    1447 9.0543715e+08 
    1448 9.0595072e+08 
    1449 9.0642093e+08 
    1450 9.0723317e+08 
    1451 9.0753388e+08 
    1452 9.0712814e+08 
    1453 9.0723397e+08 
    1454 9.0726011e+08 
    1455 9.0765608e+08 
    1456 9.0863781e+08 
    1457 9.0923623e+08 
    1458 9.0934424e+08 
    1459 9.0935113e+08 
    1460 9.0993968e+08 
    1461 9.1046409e+08 
    1462 9.1071869e+08 
    1463 9.1107622e+08 
    1464 9.114385e+08 
    1465 9.1167716e+08 
    1466 9.1186421e+08 
    1467 9.1209892e+08 
    1468 9.1232372e+08 
    1469 9.125969e+08 
    1470 9.1281337e+08 
    1471 9.1302391e+08 
    1472 9.1320072e+08 
    1473 9.1310199e+08 
    1474 9.1310558e+08 
    1475 9.1321738e+08 
    1476 9.1335326e+08 
    1477 9.136381e+08 
    1478 9.133803e+08 
    1479 9.1323429e+08 
    1480 9.1361044e+08 
    1481 9.137341e+08 
    1482 9.1426092e+08 
    1483 9.1515756e+08 
    1484 9.154674e+08 
    1485 9.153123e+08 
    1486 9.1484123e+08 
    1487 9.142478e+08 
    1488 9.1440427e+08 
    1489 9.1495711e+08 
    1490 9.1508557e+08 
    1491 9.1524413e+08 
    1492 9.1557223e+08 
    1493 9.1608984e+08 
    1494 9.1685353e+08 
    1495 9.1723771e+08 
    1496 9.1681119e+08 
    1497 9.1649652e+08 
    1498 9.1642178e+08 
    1499 9.1664628e+08 
    1500 9.1732418e+08 
    1501 9.1782401e+08 
    1502  9.17819e+08 
    1503 9.1796361e+08 
    1504 9.1885565e+08 
    1505 9.1931069e+08 
    1506 9.1897736e+08 
    1507 9.1878826e+08 
    1508 9.1912519e+08 
    1509 9.196516e+08 
    1510 9.2027092e+08 
    1511 9.2098212e+08 
    1512 9.2131253e+08 
    1513 9.2155585e+08 
    1514 9.2203296e+08 
    1515 9.2217793e+08 
    1516 9.2178351e+08 
    1517 9.2144426e+08 
    1518 9.2144438e+08 
    1519 9.2144942e+08 
    1520 9.2140739e+08 
    1521 9.2178178e+08 
    1522 9.222584e+08 
    1523 9.222258e+08 
    1524 9.2213225e+08 
    1525 9.2249571e+08 
    1526 9.2279746e+08 
    1527 9.2313436e+08 
    1528 9.2344079e+08 
    1529 9.2325156e+08 
    1530 9.2296365e+08 
    1531 9.2299937e+08 
    1532 9.2347396e+08 
    1533 9.2388327e+08 
    1534 9.2406135e+08 
    1535 9.2390783e+08 
    1536 9.2376461e+08 
    1537 9.2368703e+08 
    1538 9.2367087e+08 
    1539 9.2413083e+08 
    1540 9.244139e+08 
    1541 9.2469825e+08 
    1542 9.2504892e+08 
    1543 9.2532374e+08 
    1544 9.2592196e+08 
    1545 9.2596961e+08 
    1546 9.2589414e+08 
    1547 9.2608547e+08 
    1548 9.2589459e+08 
    1549 9.2564709e+08 
    1550 9.2523752e+08 
    1551 9.2457862e+08 
    1552 9.2465264e+08 
    1553 9.2529696e+08 
    1554 9.2541835e+08 
    1555 9.2531601e+08 
    1556 9.2551338e+08 
    1557 9.2591361e+08 
    1558 9.2657671e+08 
    1559 9.273301e+08 
    1560 9.274248e+08 
    1561 9.2729416e+08 
    1562 9.2730701e+08 
    1563 9.2722465e+08 
    1564 9.2674615e+08 
    1565 9.2660172e+08 
    1566 9.2717719e+08 
    1567 9.2755604e+08 
    1568 9.2765896e+08 
    1569 9.2782656e+08 
    1570 9.2826055e+08 
    1571 9.2851217e+08 
    1572 9.2846447e+08 
    1573  9.28395e+08 
    1574 9.2834445e+08 
    1575 9.2847449e+08 
    1576 9.2906651e+08 
    1577 9.3031211e+08 
    1578 9.3141255e+08 
    1579 9.3179718e+08 
    1580  9.31926e+08 
    1581 9.3195938e+08 
    1582 9.3172197e+08 
    1583 9.3150775e+08 
    1584 9.3172337e+08 
    1585 9.3209589e+08 
    1586 9.321848e+08 
    1587 9.3208976e+08 
    1588 9.3247469e+08 
    1589 9.3293252e+08 
    1590 9.3275022e+08 
    1591 9.3276444e+08 
    1592 9.3303505e+08 
    1593 9.3309193e+08 
    1594 9.3332378e+08 
    1595 9.3377859e+08 
    1596 9.3379135e+08 
    1597 9.3376049e+08 
    1598 9.3400429e+08 
    1599 9.3444363e+08 
    1600 9.3451194e+08 
    1601 9.3417372e+08 
    1602 9.3441847e+08 
    1603 9.3500328e+08 
    1604 9.3531832e+08 
    1605 9.3539569e+08 
    1606 9.361127e+08 
    1607 9.3697807e+08 
    1608 9.3686673e+08 
    1609 9.3674936e+08 
    1610 9.3678477e+08 
    1611 9.3702544e+08 
    1612 9.3766611e+08 
    1613 9.3770097e+08 
    1614 9.3744469e+08 
    1615 9.3753184e+08 
    1616 9.3777323e+08 
    1617 9.3802614e+08 
    1618 9.3849693e+08 
    1619 9.388327e+08 
    1620 9.3880318e+08 
    1621 9.387671e+08 
    1622 9.3818499e+08 
    1623 9.3790448e+08 
    1624 9.3857718e+08 
    1625 9.3908969e+08 
    1626 9.3922722e+08 
    1627 9.3904732e+08 
    1628 9.3889569e+08 
    1629 9.3887518e+08 
    1630 9.3901288e+08 
    1631 9.3877364e+08 
    1632 9.3837997e+08 
    1633 9.3832351e+08 
    1634 9.3823742e+08 
    1635 9.3786182e+08 
    1636 9.3755217e+08 
    1637 9.3764772e+08 
    1638 9.3761581e+08 
    1639 9.3786359e+08 
    1640 9.3822141e+08 
    1641 9.3878805e+08 
    1642 9.3923672e+08 
    1643 9.3927087e+08 
    1644 9.3967641e+08 
    1645 9.4037172e+08 
    1646 9.4090628e+08 
    1647 9.4132782e+08 
    1648 9.4134684e+08 
    1649 9.4130234e+08 
    1650 9.4148164e+08 
    1651 9.4128715e+08 
    1652 9.4141673e+08 
    1653 9.4198091e+08 
    1654 9.4189674e+08 
    1655 9.4185675e+08 
    1656 9.4268752e+08 
    1657 9.4318446e+08 
    1658 9.4334572e+08 
    1659 9.4374905e+08 
    1660 9.4364716e+08 
    1661 9.4282975e+08 
    1662 9.4271889e+08 
    1663 9.4342471e+08 
    1664 9.4362729e+08 
    1665 9.4344997e+08 
    1666 9.4364541e+08 
    1667 9.4362877e+08 
    1668 9.434898e+08 
    1669 9.4397741e+08 
    1670 9.4461104e+08 
    1671 9.4448162e+08 
    1672 9.4422754e+08 
    1673 9.445375e+08 
    1674 9.4495403e+08 
    1675 9.4538543e+08 
    1676 9.4584601e+08 
    1677 9.4647572e+08 
    1678 9.4670838e+08 
    1679 9.4642717e+08 
    1680 9.4655387e+08 
    1681 9.4691136e+08 
    1682 9.4648606e+08 
    1683 9.4617773e+08 
    1684 9.4635922e+08 
    1685 9.4647273e+08 
    1686 9.4691831e+08 
    1687 9.4740378e+08 
    1688 9.4712027e+08 
    1689 9.4620032e+08 
    1690 9.459465e+08 
    1691 9.4648097e+08 
    1692 9.4716185e+08 
    1693 9.4778149e+08 
    1694 9.4824427e+08 
    1695 9.4854656e+08 
    1696 9.489176e+08 
    1697 9.4902399e+08 
    1698 9.4927869e+08 
    1699 9.4973207e+08 
    1700 9.5020007e+08 
    1701 9.5050485e+08 
    1702 9.5111526e+08 
    1703 9.5191448e+08 
    1704 9.5177903e+08 
    1705 9.5156624e+08 
    1706 9.5132919e+08 
    1707 9.5137571e+08 
    1708 9.5200257e+08 
    1709 9.5224894e+08 
    1710 9.517501e+08 
    1711 9.5162986e+08 
    1712 9.5176537e+08 
    1713 9.516299e+08 
    1714 9.5188732e+08 
    1715 9.5204579e+08 
    1716 9.5170931e+08 
    1717 9.5164572e+08 
    1718 9.5209865e+08 
    1719 9.5221223e+08 
    1720 9.5188327e+08 
    1721 9.5135611e+08 
    1722 9.5092701e+08 
    1723 9.5108081e+08 
    1724 9.5141337e+08 
    1725 9.5162106e+08 
    1726 9.5168945e+08 
    1727 9.5137575e+08 
    1728 9.5106734e+08 
    1729 9.5068828e+08 
    1730 9.5010535e+08 
    1731 9.5011402e+08 
    1732 9.5096209e+08 
    1733 9.5149914e+08 
    1734 9.5146412e+08 
    1735  9.51466e+08 
    1736 9.5161815e+08 
    1737 9.5174692e+08 
    1738 9.517274e+08 
    1739 9.5172321e+08 
    1740 9.5182915e+08 
    1741 9.5155966e+08 
    1742 9.5110928e+08 
    1743 9.5099118e+08 
    1744 9.5112548e+08 
    1745 9.5103468e+08 
    1746 9.5076721e+08 
    1747 9.5118959e+08 
    1748 9.5153917e+08 
    1749 9.5134335e+08 
    1750 9.513355e+08 
    1751 9.5130219e+08 
    1752 9.5138948e+08 
    1753 9.5113821e+08 
    1754 9.5065062e+08 
    1755 9.5082678e+08 
    1756 9.5087521e+08 
    1757 9.5063482e+08 
    1758 9.5055538e+08 
    1759 9.5029955e+08 
    1760 9.5005034e+08 
    1761 9.4980455e+08 
    1762 9.4966244e+08 
    1763 9.4938033e+08 
    1764 9.4915284e+08 
    1765 9.4905218e+08 
    1766  9.48661e+08 
    1767 9.4853092e+08 
    1768 9.4861803e+08 
    1769 9.489248e+08 
    1770 9.4900401e+08 
    1771 9.4895775e+08 
    1772 9.4873615e+08 
    1773 9.4875797e+08 
    1774 9.4900365e+08 
    1775 9.4893406e+08 
    1776 9.4928236e+08 
    1777 9.4954435e+08 
    1778 9.4921525e+08 
    1779 9.4914037e+08 
    1780 9.4926969e+08 
    1781 9.4926129e+08 
    1782 9.4910512e+08 
    1783 9.4922512e+08 
    1784 9.4930569e+08 
    1785 9.4865372e+08 
    1786 9.4806463e+08 
    1787 9.4797387e+08 
    1788 9.480546e+08 
    1789 9.4774023e+08 
    1790 9.478882e+08 
    1791 9.4831912e+08 
    1792 9.4799065e+08 
    1793 9.4765639e+08 
    1794 9.4790328e+08 
    1795 9.4814342e+08 
    1796 9.4808022e+08 
    1797 9.4798234e+08 
    1798 9.475479e+08 
    1799 9.4718521e+08 
    1800 9.4771129e+08 
    1801 9.4816814e+08 
    1802 9.481728e+08 
    1803 9.4819359e+08 
    1804 9.4798174e+08 
    1805 9.4770756e+08 
    1806 9.4781566e+08 
    1807 9.4803757e+08 
    1808 9.4844023e+08 
    1809 9.4870665e+08 
    1810 9.4892104e+08 
    1811 9.4946582e+08 
    1812 9.4993551e+08 
    1813 9.5024458e+08 
    1814 9.5006496e+08 
    1815 9.4977564e+08 
    1816 9.4977107e+08 
    1817 9.4981726e+08 
    1818 9.4956956e+08 
    1819 9.4894141e+08 
    1820 9.4868648e+08 
    1821 9.482115e+08 
    1822 9.4728561e+08 
    1823 9.4694672e+08 
    1824 9.4701678e+08 
    1825 9.4727872e+08 
    1826 9.4758931e+08 
    1827 9.4788602e+08 
    1828 9.4782687e+08 
    1829 9.4748633e+08 
    1830 9.4723753e+08 
    1831 9.4695574e+08 
    1832 9.4708145e+08 
    1833 9.4758684e+08 
    1834 9.4813578e+08 
    1835 9.4889711e+08 
    1836 9.4923928e+08 
    1837 9.4952704e+08 
    1838 9.4970762e+08 
    1839 9.4926563e+08 
    1840 9.4883724e+08 
    1841 9.4891235e+08 
    1842 9.4919919e+08 
    1843 9.4900777e+08 
    1844 9.4893442e+08 
    1845 9.4907719e+08 
    1846 9.4914711e+08 
    1847 9.4952572e+08 
    1848 9.4974655e+08 
    1849 9.4996764e+08 
    1850 9.5053004e+08 
    1851 9.512067e+08 
    1852 9.5161903e+08 
    1853 9.5172736e+08 
    1854 9.5210525e+08 
    1855 9.5244633e+08 
    1856 9.5236258e+08 
    1857 9.5206542e+08 
    1858 9.5208908e+08 
    1859 9.5218738e+08 
    1860 9.5247896e+08 
    1861 9.5272009e+08 
    1862 9.5258366e+08 
    1863 9.5268713e+08 
    1864 9.5303787e+08 
    1865 9.5386719e+08 
    1866 9.543395e+08 
    1867 9.5465863e+08 
    1868 9.5495382e+08 
    1869 9.5477124e+08 
    1870 9.542993e+08 
    1871 9.5383307e+08 
    1872 9.5404799e+08 
    1873 9.5475284e+08 
    1874 9.5532339e+08 
    1875 9.5555757e+08 
    1876 9.5547591e+08 
    1877 9.5537435e+08 
    1878 9.5536438e+08 
    1879 9.5518043e+08 
    1880 9.551131e+08 
    1881 9.5551766e+08 
    1882 9.5600549e+08 
    1883 9.5641925e+08 
    1884 9.5663214e+08 
    1885 9.5651298e+08 
    1886 9.5646582e+08 
    1887 9.5636853e+08 
    1888 9.5625403e+08 
    1889 9.5626473e+08 
    1890 9.5656047e+08 
    1891 9.5710751e+08 
    1892 9.5753311e+08 
    1893 9.5701253e+08 
    1894 9.5633042e+08 
    1895 9.5638284e+08 
    1896 9.5647475e+08 
    1897 9.5660972e+08 
    1898 9.5691625e+08 
    1899 9.5689941e+08 
    1900 9.5715373e+08 
    1901 9.5786723e+08 
    1902 9.5802998e+08 
    1903 9.5786807e+08 
    1904 9.5777591e+08 
    1905 9.5827576e+08 
    1906 9.5873785e+08 
    1907 9.582684e+08 
    1908 9.580592e+08 
    1909 9.5796157e+08 
    1910 9.5776629e+08 
    1911  9.57571e+08 
    1912 9.5729888e+08 
    1913 9.5736565e+08 
    1914 9.5727813e+08 
    1915 9.5729438e+08 
    1916 9.5752571e+08 
    1917 9.5754375e+08 
    1918 9.571333e+08 
    1919 9.5694574e+08 
    1920 9.5692251e+08 
    1921 9.5686796e+08 
    1922 9.5628004e+08 
    1923 9.5593961e+08 
    1924 9.5581085e+08 
    1925 9.5529248e+08 
    1926 9.5519944e+08 
    1927 9.5573713e+08 
    1928 9.5609561e+08 
    1929 9.5628127e+08 
    1930 9.5728113e+08 
    1931 9.5791048e+08 
    1932 9.5768625e+08 
    1933 9.5721001e+08 
    1934 9.574139e+08 
    1935 9.5811743e+08 
    1936 9.5808092e+08 
    1937 9.5785373e+08 
    1938 9.5718122e+08 
    1939 9.5654777e+08 
    1940 9.5633483e+08 
    1941 9.5553866e+08 
    1942 9.551332e+08 
    1943 9.5504994e+08 
    1944 9.5520309e+08 
    1945 9.5611019e+08 
    1946 9.5641549e+08 
    1947 9.558695e+08 
    1948 9.5542003e+08 
    1949 9.5522358e+08 
    1950 9.5512849e+08 
    1951 9.5526205e+08 
    1952 9.5563096e+08 
    1953 9.5599707e+08 
    1954 9.5624615e+08 
    1955 9.5634767e+08 
    1956 9.5633403e+08 
    1957 9.5672956e+08 
    1958 9.5751121e+08 
    1959 9.5805819e+08 
    1960 9.5848349e+08 
    1961 9.5857126e+08 
    1962 9.5859069e+08 
    1963 9.5863707e+08 
    1964   9.5856e+08 
    1965 9.5900983e+08 
    1966 9.5941134e+08 
    1967 9.5928135e+08 
    1968 9.5901649e+08 
    1969 9.5888601e+08 
    1970 9.5893738e+08 
    1971 9.5912487e+08 
    1972 9.5882516e+08 
    1973 9.5850491e+08 
    1974 9.5866248e+08 
    1975 9.5846608e+08 
    1976 9.5805239e+08 
    1977 9.5786702e+08 
    1978 9.579257e+08 
    1979 9.5815638e+08 
    1980 9.5848072e+08 
    1981 9.5824045e+08 
    1982 9.5778825e+08 
    1983 9.5745478e+08 
    1984 9.5726064e+08 
    1985 9.572924e+08 
    1986 9.5735674e+08 
    1987 9.5775877e+08 
    1988 9.5790133e+08 
    1989 9.5784323e+08 
    1990 9.5726766e+08 
    1991 9.5692624e+08 
    1992 9.572256e+08 
    1993 9.5731668e+08 
    1994 9.5790792e+08 
    1995 9.5845097e+08 
    1996 9.5860283e+08 
    1997 9.5884346e+08 
    1998 9.5896328e+08 
    1999 9.5892821e+08 
    2000 9.5880622e+08 
    2001 9.5892751e+08 
    2002 9.5917065e+08 
    2003 9.5925362e+08 
    2004 9.5913746e+08 
    2005 9.5909849e+08 
    2006 9.5935439e+08 
    2007 9.5974065e+08 
    2008 9.6034173e+08 
    2009 9.6080885e+08 
    2010 9.6088966e+08 
    2011 9.6085663e+08 
    2012 9.609633e+08 
    2013 9.6130977e+08 
    2014 9.6165853e+08 
    2015 9.6160047e+08 
    2016 9.610503e+08 
    2017 9.6053142e+08 
    2018 9.6040689e+08 
    2019 9.6078133e+08 
    2020 9.6087298e+08 
    2021 9.6091268e+08 
    2022 9.614753e+08 
    2023 9.6191961e+08 
    2024 9.6174293e+08 
    2025 9.616094e+08 
    2026 9.6191491e+08 
    2027 9.6200874e+08 
    2028 9.6210835e+08 
    2029 9.6183246e+08 
    2030 9.6115305e+08 
    2031 9.6113896e+08 
    2032 9.6119496e+08 
    2033 9.611319e+08 
    2034 9.6116608e+08 
    2035 9.6085167e+08 
    2036 9.6053923e+08 
    2037 9.6101833e+08 
    2038 9.6202282e+08 
    2039 9.6264964e+08 
    2040 9.6265105e+08 
    2041 9.6250693e+08 
    2042 9.6238811e+08 
    2043 9.6227192e+08 
    2044 9.6229959e+08 
    2045 9.6237926e+08 
    2046 9.6303584e+08 
    2047 9.6371431e+08 
    2048 9.6387249e+08 
    2049 9.6369303e+08 
    2050 9.6344187e+08 
    2051 9.6358717e+08 
    2052 9.6344516e+08 
    2053 9.6341046e+08 
    2054 9.6355882e+08 
    2055 9.6394817e+08 
    2056 9.6460216e+08 
    2057 9.6480551e+08 
    2058 9.6498827e+08 
    2059 9.6515787e+08 
    2060 9.6540622e+08 
    2061 9.6600164e+08 
    2062 9.6599561e+08 
    2063 9.6541956e+08 
    2064 9.6528755e+08 
    2065 9.6529777e+08 
    2066 9.6558131e+08 
    2067 9.6593327e+08 
    2068 9.6594614e+08 
    2069 9.6593459e+08 
    2070 9.6624786e+08 
    2071 9.6681642e+08 
    2072 9.6776063e+08 
    2073 9.6871398e+08 
    2074 9.6904265e+08 
    2075 9.6899828e+08 
    2076 9.6874714e+08 
    2077 9.6851246e+08 
    2078 9.684202e+08 
    2079 9.6880175e+08 
    2080 9.6949936e+08 
    2081 9.6965578e+08 
    2082 9.6993543e+08 
    2083 9.7023811e+08 
    2084 9.6958773e+08 
    2085 9.6857103e+08 
    2086 9.6837479e+08 
    2087 9.6882501e+08 
    2088 9.6937209e+08 
    2089 9.694968e+08 
    2090 9.6977075e+08 
    2091 9.7023027e+08 
    2092 9.7013689e+08 
    2093 9.7002266e+08 
    2094 9.7031882e+08 
    2095 9.7029015e+08 
    2096 9.6994728e+08 
    2097 9.6988622e+08 
    2098 9.6970919e+08 
    2099 9.6965488e+08 
    2100 9.6997349e+08 
    2101 9.7029117e+08 
    2102 9.7033379e+08 
    2103 9.7040576e+08 
    2104 9.7069375e+08 
    2105 9.7081826e+08 
    2106 9.7074248e+08 
    2107 9.7081809e+08 
    2108 9.7128074e+08 
    2109 9.7151278e+08 
    2110 9.7149495e+08 
    2111 9.7167358e+08 
    2112 9.7177365e+08 
    2113 9.7195909e+08 
    2114 9.7229747e+08 
    2115 9.7277109e+08 
    2116 9.7325709e+08 
    2117 9.7336631e+08 
    2118 9.7339737e+08 
    2119 9.7389523e+08 
    2120 9.7388642e+08 
    2121 9.7354639e+08 
    2122 9.7393193e+08 
    2123 9.7430536e+08 
    2124 9.7422277e+08 
    2125 9.7400135e+08 
    2126 9.7376634e+08 
    2127 9.7359416e+08 
    2128 9.7342416e+08 
    2129 9.7324753e+08 
    2130 9.7328068e+08 
    2131 9.7347234e+08 
    2132 9.7337291e+08 
    2133 9.7320447e+08 
    2134 9.729782e+08 
    2135 9.7259529e+08 
    2136 9.7259648e+08 
    2137 9.7262273e+08 
    2138 9.7231521e+08 
    2139 9.7216311e+08 
    2140 9.7248569e+08 
    2141 9.720986e+08 
    2142 9.7130156e+08 
    2143 9.7099032e+08 
    2144 9.7113064e+08 
    2145 9.7158605e+08 
    2146 9.7207394e+08 
    2147 9.719268e+08 
    2148 9.7180005e+08 
    2149 9.7230942e+08 
    2150 9.727253e+08 
    2151 9.7304336e+08 
    2152 9.7319339e+08 
    2153 9.736007e+08 
    2154 9.7332913e+08 
    2155 9.7240531e+08 
    2156 9.7244916e+08 
    2157 9.728051e+08 
    2158 9.732727e+08 
    2159 9.7387847e+08 
    2160 9.7409462e+08 
    2161 9.7432438e+08 
    2162 9.7439729e+08 
    2163 9.7379635e+08 
    2164 9.7335579e+08 
    2165 9.7376039e+08 
    2166 9.7413549e+08 
    2167 9.7416104e+08 
    2168 9.7420093e+08 
    2169 9.7401883e+08 
    2170 9.7392047e+08 
    2171 9.7413851e+08 
    2172 9.7447185e+08 
    2173 9.7499872e+08 
    2174 9.7473333e+08 
    2175 9.7404632e+08 
    2176 9.7361846e+08 
    2177 9.7336046e+08 
    2178 9.7391057e+08 
    2179 9.7411197e+08 
    2180 9.7380977e+08 
    2181 9.7405221e+08 
    2182 9.7442006e+08 
    2183 9.7489615e+08 
    2184 9.7527262e+08 
    2185 9.7526787e+08 
    2186 9.749291e+08 
    2187 9.7444207e+08 
    2188 9.7422513e+08 
    2189 9.7441064e+08 
    2190 9.7474946e+08 
    2191 9.7475646e+08 
    2192  9.74461e+08 
    2193 9.7453734e+08 
    2194 9.7460384e+08 
    2195 9.7463996e+08 
    2196 9.751451e+08 
    2197 9.7550398e+08 
    2198 9.7498551e+08 
    2199 9.7453019e+08 
    2200 9.744572e+08 
    2201 9.7451202e+08 
    2202 9.7436975e+08 
    2203 9.7360295e+08 
    2204 9.7339613e+08 
    2205 9.7360815e+08 
    2206 9.7374035e+08 
    2207 9.7414844e+08 
    2208 9.7432064e+08 
    2209 9.7471552e+08 
    2210 9.7514079e+08 
    2211 9.7484948e+08 
    2212 9.7484941e+08 
    2213 9.754856e+08 
    2214 9.7579016e+08 
    2215 9.7512333e+08 
    2216 9.7473746e+08 
    2217 9.7489639e+08 
    2218 9.7495338e+08 
    2219 9.7504272e+08 
    2220 9.7458434e+08 
    2221 9.7370337e+08 
    2222 9.7301629e+08 
    2223 9.7257857e+08 
    2224 9.7259647e+08 
    2225 9.7263889e+08 
    2226 9.7273867e+08 
    2227 9.7305807e+08 
    2228 9.730625e+08 
    2229 9.7277787e+08 
    2230 9.725259e+08 
    2231 9.7296716e+08 
    2232 9.7349991e+08 
    2233 9.7373094e+08 
    2234 9.7401351e+08 
    2235 9.7425199e+08 
    2236 9.7435996e+08 
    2237 9.7439983e+08 
    2238 9.7439915e+08 
    2239 9.7436996e+08 
    2240 9.7465471e+08 
    2241 9.748802e+08 
    2242 9.7498083e+08 
    2243 9.751969e+08 
    2244 9.7539236e+08 
    2245 9.7550129e+08 
    2246 9.7559778e+08 
    2247 9.7533384e+08 
    2248 9.7486585e+08 
    2249 9.7442963e+08 
    2250 9.7378415e+08 
    2251 9.7325782e+08 
    2252 9.7311085e+08 
    2253 9.729819e+08 
    2254 9.7265716e+08 
    2255 9.7273414e+08 
    2256 9.7297019e+08 
    2257 9.729655e+08 
    2258 9.7326138e+08 
    2259 9.7366357e+08 
    2260 9.7414237e+08 
    2261 9.7516317e+08 
    2262 9.7601343e+08 
    2263 9.7653256e+08 
    2264 9.7688683e+08 
    2265 9.7732534e+08 
    2266  9.78341e+08 
    2267 9.7903234e+08 
    2268 9.7943292e+08 
    2269 9.7991303e+08 
    2270 9.8036983e+08 
    2271 9.8077523e+08 
    2272 9.8062607e+08 
    2273 9.8056257e+08 
    2274 9.8081752e+08 
    2275 9.812572e+08 
    2276 9.8168065e+08 
    2277 9.8160471e+08 
    2278 9.815209e+08 
    2279 9.8170039e+08 
    2280 9.8194599e+08 
    2281 9.8172119e+08 
    2282 9.8162605e+08 
    2283 9.8147365e+08 
    2284 9.8085388e+08 
    2285 9.8062567e+08 
    2286 9.8065281e+08 
    2287 9.8050733e+08 
    2288 9.8045405e+08 
    2289 9.8095877e+08 
    2290 9.815814e+08 
    2291 9.8161551e+08 
    2292 9.8187606e+08 
    2293 9.8250944e+08 
    2294 9.8293304e+08 
    2295 9.8344443e+08 
    2296 9.8343113e+08 
    2297 9.8307879e+08 
    2298 9.8294256e+08 
    2299 9.8319739e+08 
    2300 9.8362202e+08 
    2301 9.8368328e+08 
    2302 9.8376973e+08 
    2303 9.839056e+08 
    2304 9.8379934e+08 
    2305 9.8356505e+08 
    2306 9.8295539e+08 
    2307 9.8278082e+08 
    2308 9.8272547e+08 
    2309 9.8255398e+08 
    2310 9.8287598e+08 
    2311 9.8334671e+08 
    2312 9.8322945e+08 
    2313 9.8257389e+08 
    2314 9.8248921e+08 
    2315 9.8275102e+08 
    2316 9.8294483e+08 
    2317 9.8365102e+08 
    2318 9.8419439e+08 
    2319 9.8419996e+08 
    2320 9.8409694e+08 
    2321 9.8438699e+08 
    2322 9.8480958e+08 
    2323 9.8492243e+08 
    2324 9.8502748e+08 
    2325 9.8519388e+08 
    2326 9.8573598e+08 
    2327 9.8623811e+08 
    2328  9.86656e+08 
    2329 9.8728806e+08 
    2330 9.875395e+08 
    2331 9.8755216e+08 
    2332 9.8801708e+08 
    2333 9.8837915e+08 
    2334 9.8792425e+08 
    2335 9.8756356e+08 
    2336 9.8778693e+08 
    2337 9.8777912e+08 
    2338 9.8768925e+08 
    2339 9.8765796e+08 
    2340 9.8830401e+08 
    2341 9.889936e+08 
    2342 9.8880364e+08 
    2343 9.8834086e+08 
    2344 9.8811398e+08 
    2345 9.8804181e+08 
    2346 9.8764035e+08 
    2347 9.8776476e+08 
    2348 9.8802806e+08 
    2349 9.8816757e+08 
    2350 9.8843162e+08 
    2351 9.8858764e+08 
    2352 9.8868982e+08 
    2353 9.884314e+08 
    2354 9.8806107e+08 
    2355 9.875712e+08 
    2356 9.8722184e+08 
    2357 9.8750752e+08 
    2358 9.8835587e+08 
    2359 9.8913941e+08 
    2360 9.8975803e+08 
    2361 9.904703e+08 
    2362 9.9101198e+08 
    2363 9.9066306e+08 
    2364 9.9042793e+08 
    2365 9.907089e+08 
    2366 9.9110275e+08 
    2367 9.9108519e+08 
    2368 9.9102393e+08 
    2369 9.9152057e+08 
    2370 9.9143793e+08 
    2371 9.9153369e+08 
    2372 9.9126387e+08 
    2373 9.9045536e+08 
    2374 9.9039731e+08 
    2375 9.9079535e+08 
    2376 9.9120318e+08 
    2377 9.9177294e+08 
    2378 9.9213427e+08 
    2379 9.9192518e+08 
    2380 9.9240808e+08 
    2381 9.9311411e+08 
    2382 9.9293897e+08 
    2383 9.9304055e+08 
    2384 9.936938e+08 
    2385 9.9423567e+08 
    2386 9.9455158e+08 
    2387 9.9462193e+08 
    2388 9.9503276e+08 
    2389 9.9560948e+08 
    2390 9.9573669e+08 
    2391 9.9600207e+08 
    2392 9.962542e+08 
    2393 9.9616571e+08 
    2394 9.9597251e+08 
    2395 9.9578893e+08 
    2396 9.9589866e+08 
    2397 9.9584767e+08 
    2398 9.9567318e+08 
    2399 9.9572188e+08 
    2400 9.9561331e+08 
    2401 9.9553998e+08 
    2402 9.9547773e+08 
    2403 9.9495185e+08 
    2404 9.9499401e+08 
    2405 9.9555306e+08 
    2406 9.9599079e+08 
    2407 9.961782e+08 
    2408 9.9585611e+08 
    2409 9.9591696e+08 
    2410 9.9600149e+08 
    2411 9.9602574e+08 
    2412 9.9601325e+08 
    2413 9.9575467e+08 
    2414 9.9591128e+08 
    2415 9.9646282e+08 
    2416 9.9685593e+08 
    2417 9.9707152e+08 
    2418 9.9694374e+08 
    2419 9.9685903e+08 
    2420 9.9690347e+08 
    2421 9.9667416e+08 
    2422 9.9681789e+08 
    2423 9.9724618e+08 
    2424 9.977084e+08 
    2425 9.9796801e+08 
    2426 9.9834708e+08 
    2427 9.9867215e+08 
    2428 9.9879069e+08 
    2429 9.9903266e+08 
    2430 9.9896829e+08 
    2431 9.9880983e+08 
    2432 9.9875209e+08 
    2433  9.98692e+08 
    2434 9.9849075e+08 
    2435 9.980705e+08 
    2436 9.9771457e+08 
    2437 9.9763084e+08 
    2438 9.9714739e+08 
    2439 9.9603562e+08 
    2440 9.9565374e+08 
    2441 9.9607808e+08 
    2442 9.9640083e+08 
    2443 9.9642893e+08 
    2444 9.9612247e+08 
    2445 9.9610634e+08 
    2446 9.9653415e+08 
    2447 9.9646746e+08 
    2448 9.9636835e+08 
    2449 9.9620223e+08 
    2450 9.9547782e+08 
    2451 9.9477246e+08 
    2452 9.9459556e+08 
    2453 9.9442689e+08 
    2454 9.940923e+08 
    2455 9.9401502e+08 
    2456 9.9368642e+08 
    2457 9.9387168e+08 
    2458 9.9400235e+08 
    2459 9.9375465e+08 
    2460  9.93675e+08 
    2461 9.9372704e+08 
    2462 9.9398969e+08 
    2463 9.9403848e+08 
    2464 9.9393601e+08 
    2465 9.9381067e+08 
    2466 9.9400217e+08 
    2467 9.9435787e+08 
    2468 9.9479106e+08 
    2469 9.9532084e+08 
    2470 9.9520174e+08 
    2471 9.9485759e+08 
    2472 9.9535445e+08 
    2473 9.9585403e+08 
    2474 9.9592704e+08 
    2475 9.9616556e+08 
    2476 9.9605292e+08 
    2477 9.9568224e+08 
    2478 9.9537989e+08 
    2479 9.9509188e+08 
    2480 9.9477747e+08 
    2481 9.9473195e+08 
    2482 9.9503398e+08 
    2483 9.9539904e+08 
    2484 9.9589978e+08 
    2485   9.9623e+08 
    2486 9.9640761e+08 
    2487 9.9617495e+08 
    2488 9.9611521e+08 
    2489 9.964103e+08 
    2490 9.9682867e+08 
    2491 9.9715229e+08 
    2492 9.9701745e+08 
    2493 9.9750151e+08 
    2494 9.9785809e+08 
    2495 9.9747503e+08 
    2496 9.9763335e+08 
    2497 9.9792071e+08 
    2498 9.9796178e+08 
    2499 9.9828971e+08 
    2500 9.9826276e+08 
    2501 9.9764124e+08 
    2502 9.9770693e+08 
    2503 9.9858869e+08 
    2504 9.9922164e+08 
    2505 9.9929996e+08 
    2506 9.9951311e+08 
    2507 9.9991073e+08 
    2508 9.9991219e+08 
    2509 9.9970337e+08 
    2510 9.9996271e+08 
    2511 1.0003116e+09 
    2512 1.0002711e+09 
    2513 1.000087e+09 
    2514 9.9996756e+08 
    2515 1.0002715e+09 
    2516 1.000468e+09 
    2517 9.9998652e+08 
    2518 9.9938596e+08 
    2519 9.992284e+08 
    2520 9.9937734e+08 
    2521 9.9952283e+08 
    2522 9.9971179e+08 
    2523 9.9992259e+08 
    2524 9.9976916e+08 
    2525 9.9930008e+08 
    2526 9.9872689e+08 
    2527 9.9843834e+08 
    2528 9.9861032e+08 
    2529 9.9885881e+08 
    2530 9.9900437e+08 
    2531 9.9911016e+08 
    2532 9.9902692e+08 
    2533 9.9918833e+08 
    2534 9.9944155e+08 
    2535 9.9978122e+08 
    2536 1.0006157e+09 
    2537 1.0009636e+09 
    2538 1.0009025e+09 
    2539 1.0006486e+09 
    2540 1.0004464e+09 
    2541  1.00094e+09 
    2542 1.0013929e+09 
    2543 1.0014051e+09 
    2544 1.0014136e+09 
    2545 1.0015941e+09 
    2546 1.0016482e+09 
    2547 1.0012324e+09 
    2548 1.0011064e+09 
    2549  1.00157e+09 
    2550 1.001532e+09 
    2551 1.0013312e+09 
    2552 1.0014299e+09 
    2553 1.0018748e+09 
    2554 1.0025274e+09 
    2555 1.0032824e+09 
    2556 1.0034821e+09 
    2557 1.003583e+09 
    2558 1.0035011e+09 
    2559 1.0028644e+09 
    2560 1.0026559e+09 
    2561 1.0032538e+09 
    2562 1.0034135e+09 
    2563 1.0028037e+09 
    2564 1.0023263e+09 
    2565 1.0017351e+09 
    2566 1.0016255e+09 
    2567 1.0019639e+09 
    2568 1.0021014e+09 
    2569 1.0019581e+09 
    2570 1.0018525e+09 
    2571 1.0020286e+09 
    2572 1.0022342e+09 
    2573 1.0023569e+09 
    2574 1.002592e+09 
    2575 1.0023406e+09 
    2576 1.0022679e+09 
    2577 1.0026802e+09 
    2578 1.0029235e+09 
    2579 1.0034007e+09 
    2580 1.0038934e+09 
    2581 1.0038486e+09 
    2582 1.0039321e+09 
    2583 1.0043921e+09 
    2584 1.0046527e+09 
    2585 1.004902e+09 
    2586 1.0051774e+09 
    2587 1.005171e+09 
    2588 1.0052612e+09 
    2589 1.005303e+09 
    2590 1.0050646e+09 
    2591 1.0050061e+09 
    2592 1.0049596e+09 
    2593 1.0049342e+09 
    2594 1.0048426e+09 
    2595 1.0049054e+09 
    2596 1.0050898e+09 
    2597 1.0053792e+09 
    2598 1.005619e+09 
    2599 1.0059613e+09 
    2600 1.0062203e+09 
    2601 1.0065977e+09 
    2602 1.0075206e+09 
    2603 1.007815e+09 
    2604 1.0079193e+09 
    2605 1.0080227e+09 
    2606 1.0080067e+09 
    2607 1.0080874e+09 
    2608 1.0086094e+09 
    2609 1.009584e+09 
    2610 1.0095629e+09 
    2611 1.0091325e+09 
    2612 1.009522e+09 
    2613 1.009908e+09 
    2614 1.0098874e+09 
    2615 1.0097522e+09 
    2616 1.0096568e+09 
    2617 1.0095447e+09 
    2618 1.0091931e+09 
    2619 1.008992e+09 
    2620 1.0090671e+09 
    2621 1.0088414e+09 
    2622 1.0088077e+09 
    2623 1.0088651e+09 
    2624 1.0087393e+09 
    2625 1.0089356e+09 
    2626 1.009103e+09 
    2627 1.0088546e+09 
    2628 1.0083611e+09 
    2629 1.0084126e+09 
    2630 1.0085261e+09 
    2631 1.008103e+09 
    2632 1.007614e+09 
    2633 1.007408e+09 
    2634 1.0075967e+09 
    2635 1.0075959e+09 
    2636 1.0073384e+09 
    2637 1.0069366e+09 
    2638 1.0065208e+09 
    2639 1.0065046e+09 
    2640 1.0066784e+09 
    2641 1.0071891e+09 
    2642 1.0078753e+09 
    2643 1.0082279e+09 
    2644 1.0081687e+09 
    2645 1.0078184e+09 
    2646 1.0079107e+09 
    2647 1.007983e+09 
    2648 1.0079075e+09 
    2649 1.0080489e+09 
    2650 1.0082529e+09 
    2651 1.0084529e+09 
    2652 1.0081774e+09 
    2653 1.0082585e+09 
    2654 1.0091773e+09 
    2655 1.0095253e+09 
    2656 1.0090984e+09 
    2657 1.0087766e+09 
    2658 1.0089928e+09 
    2659 1.0096599e+09 
    2660 1.0099952e+09 
    2661  1.00983e+09 
    2662 1.009909e+09 
    2663 1.0102097e+09 
    2664 1.0101536e+09 
    2665 1.0101075e+09 
    2666 1.0102191e+09 
    2667 1.0104426e+09 
    2668 1.0106016e+09 
    2669 1.0112638e+09 
    2670 1.0120569e+09 
    2671 1.0122847e+09 
    2672 1.0127145e+09 
    2673 1.0130849e+09 
    2674 1.0134303e+09 
    2675 1.0135273e+09 
    2676 1.0135083e+09 
    2677 1.0134545e+09 
    2678 1.0135426e+09 
    2679 1.013951e+09 
    2680 1.0141531e+09 
    2681 1.013886e+09 
    2682 1.0133645e+09 
    2683 1.0137675e+09 
    2684 1.0143396e+09 
    2685 1.014727e+09 
    2686 1.0150397e+09 
    2687 1.0150615e+09 
    2688 1.0151103e+09 
    2689 1.0155248e+09 
    2690 1.0164304e+09 
    2691 1.0171405e+09 
    2692 1.0174157e+09 
    2693 1.0177097e+09 
    2694 1.0177103e+09 
    2695 1.0177096e+09 
    2696 1.0182536e+09 
    2697 1.0184644e+09 
    2698 1.0185024e+09 
    2699 1.0185992e+09 
    2700 1.0189616e+09 
    2701 1.0192953e+09 
    2702 1.0194472e+09 
    2703 1.0197074e+09 
    2704 1.019811e+09 
    2705 1.0196017e+09 
    2706 1.0193907e+09 
    2707 1.0192235e+09 
    2708 1.0190001e+09 
    2709 1.0192945e+09 
    2710 1.0195444e+09 
    2711 1.0200578e+09 
    2712 1.0205404e+09 
    2713 1.0201237e+09 
    2714 1.0201759e+09 
    2715 1.0201403e+09 
    2716 1.0199851e+09 
    2717 1.0203267e+09 
    2718 1.0202196e+09 
    2719 1.0201503e+09 
    2720 1.0199493e+09 
    2721 1.0195143e+09 
    2722 1.0194966e+09 
    2723 1.0197312e+09 
    2724 1.0199236e+09 
    2725 1.0198907e+09 
    2726 1.0195831e+09 
    2727 1.0194056e+09 
    2728 1.0194187e+09 
    2729 1.019789e+09 
    2730 1.0203294e+09 
    2731 1.020486e+09 
    2732 1.0207117e+09 
    2733 1.0207945e+09 
    2734 1.0209521e+09 
    2735 1.0211779e+09 
    2736 1.0212767e+09 
    2737 1.0217486e+09 
    2738 1.0221083e+09 
    2739 1.0223289e+09 
    2740 1.0227187e+09 
    2741 1.0231184e+09 
    2742 1.0236409e+09 
    2743 1.0241755e+09 
    2744 1.0239655e+09 
    2745 1.0231969e+09 
    2746 1.0229139e+09 
    2747 1.022725e+09 
    2748 1.0220536e+09 
    2749 1.0210568e+09 
    2750 1.0207746e+09 
    2751 1.0212727e+09 
    2752 1.021653e+09 
    2753 1.0220263e+09 
    2754 1.0222308e+09 
    2755 1.0226052e+09 
    2756 1.0228691e+09 
    2757 1.0231319e+09 
    2758 1.0235695e+09 
    2759 1.0239922e+09 
    2760 1.0236538e+09 
    2761 1.0230112e+09 
    2762 1.0232287e+09 
    2763 1.0234948e+09 
    2764 1.0233238e+09 
    2765 1.0229638e+09 
    2766 1.0228636e+09 
    2767 1.0231119e+09 
    2768 1.0230482e+09 
    2769 1.0228834e+09 
    2770 1.0227979e+09 
    2771 1.0228989e+09 
    2772 1.0235576e+09 
    2773 1.0239794e+09 
    2774 1.0244011e+09 
    2775 1.0251011e+09 
    2776 1.025144e+09 
    2777 1.0249797e+09 
    2778 1.0251779e+09 
    2779 1.025036e+09 
    2780 1.0247257e+09 
    2781 1.0245599e+09 
    2782 1.0244225e+09 
    2783 1.024592e+09 
    2784 1.0247474e+09 
    2785 1.0245654e+09 
    2786 1.0246391e+09 
    2787 1.0245334e+09 
    2788 1.024