LAMMPS data file from restart file: timestep = 0, procs = 1

4096 atoms
1216 bonds

1 atom types
1 bond types

0.0000000000000000e+00 4.0000000000000002e-04 xlo xhi
0.0000000000000000e+00 4.0000000000000002e-04 ylo yhi
0.0000000000000000e+00 4.0000000000000002e-04 zlo zhi

Masses

1 3.90625e-12

Atoms

1 1 0.0000000000000000e+00 0.0000000000000000e+00 0.0000000000000000e+00 0 0.0000000000000000e+00 0.0000000000000000e+00 1.0000000000000000e+00 0 0 0
2 1 2.5000000000000001e-05 0.0000000000000000e+00 0.0000000000000000e+00 0 0.0000000000000000e+00 0.0000000000000000e+00 1.0000000000000000e+00 0 0 0
3 1 5.0000000000000002e-05 0.0000000000000000e+00 0.0000000000000000e+00 0 0.0000000000000000e+00 0.0000000000000000e+00 1.0000000000000000e+00 0 0 0
4 1 7.5000000000000007e-05 0.0000000000000000e+00 0.0000000000000000e+00 0 0.0000000000000000e+00 0.0000000000000000e+00 1.0000000000000000e+00 0 0 0
5 1 1.0000000000000000e-04 0.0000000000000000e+00 0.0000000000000000e+00 0 0.0000000000000000e+00 0.0000000000000000e+00 1.0000000000000000e+00 0 0 0
6 1 1.2500000000000000e-04 0.0000000000000000e+00 0.0000000000000000e+00 0 0.0000000000000000e+00 0.0000000000000000e+00 1.0000000000000000e+00 0 0 0
7 1 1.5000000000000001e-04 0.0000000000000000e+00 0.0000000000000000e+00 0 0.0000000000000000e+00 0.0000000000000000e+00 1.0000000000000000e+00 0 0 0
8 1 1.7500000000000000e-04 0.0000000000000000e+00 0.0000000000000000e+00 0 0.0000000000000000e+00 0.0000000000000000e+00 1.0000000000000000e+00 0 0 0
9 1 2.0000000000000001e-04 0.0000000000000000e+00 0.0000000000000000e+00 0 0.0000000000000000e+00 0.0000000000000000e+00 1.0000000000000000e+00 0 0 0
10 1 2.2500000000000002e-04 0.0000000000000000e+00 0.0000000000000000e+00 0 0.0000000000000000e+00 0.0000000000000000e+00 1.0000000000000000e+00 0 0 0
11 1 2.5000000000000001e-04 0.0000000000000000e+00 0.0000000000000000e+00 0 0.0000000000000000e+00 0.0000000000000000e+00 1.0000000000000000e+00 0 0 0
12 1 2.7500000000000002e-04 0.0000000000000000e+00 0.0000000000000000e+00 0 0.0000000000000000e+00 0.0000000000000000e+00 1.0000000000000000e+00 0 0 0
13 1 3.0000000000000003e-04 0.0000000000000000e+00 0.0000000000000000e+00 0 0.0000000000000000e+00 0.0000000000000000e+00 1.0000000000000000e+00 0 0 0
14 1 3.2500000000000004e-04 0.0000000000000000e+00 0.0000000000000000e+00 0 0.0000000000000000e+00 0.0000000000000000e+00 1.0000000000000000e+00 0 0 0
15 1 3.5000000000000000e-04 0.0000000000000000e+00 0.0000000000000000e+00 0 0.0000000000000000e+00 0.0000000000000000e+00 1.0000000000000000e+00 0 0 0
16 1 3.7500000000000001e-04 0.0000000000000000e+00 0.0000000000000000e+00 0 0.0000000000000000e+00 0.0000000000000000e+00 1.0000000000000000e+00 0 0 0
17 1 0.0000000000000000e+00 2.5000000000000001e-05 0.0000000000000000e+00 0 0.0000000000000000e+00 0.0000000000000000e+00 1.0000000000000000e+00 0 0 0
18 1 2.5000000000000001e-05 2.5000000000000001e-05 0.0000000000000000e+00 0 0.0000000000000000e+00 0.0000000000000000e+00 1.0000000000000000e+00 0 0 0
19 1 5.0000000000000002e-05 2.5000000000000001e-05 0.0000000000000000e+00 0 0.0000000000000000e+00 0.0000000000000000e+00 1.0000000000000000e+00 0 0 0
20 1 7.5000000000000007e-05 2.5000000000000001e-05 0.0000000000000000e+00 0 0.0000000000000000e+00 0.0000000000000000e+00 1.0000000000000000e+00 0 0 0
21 1 1.0000000000000000e-04 2.5000000000000001e-05 0.0000000000000000e+00 0 0.0000000000000000e+00 0.0000000000000000e+00 1.0000000000000000e+00 0 0 0
22 1 1.2500000000000000e-04 2.5000000000000001e-05 0.0000000000000000e+00 0 0.0000000000000000e+00 0.0000000000000000e+00 1.0000000000000000e+00 0 0 0
23 1 1.5000000000000001e-04 2.5000000000000001e-05 0.0000000000000000e+00 0 0.0000000000000000e+00 0.0000000000000000e+00 1.0000000000000000e+00 0 0 0
24 1 1.7500000000000000e-04 2.5000000000000001e-05 0.0000000000000000e+00 0 0.0000000000000000e+00 0.0000000000000000e+00 1.0000000000000000e+00 0 0 0
25 1 2.0000000000000001e-04 2.5000000000000001e-05 0.0000000000000000e+00 0 0.0000000000000000e+00 0.0000000000000000e+00 1.0000000000000000e+00 0 0 0
26 1 2.2500000000000002e-04 2.5000000000000001e-05 0.0000000000000000e+00 0 0.0000000000000000e+00 0.0000000000000000e+00 1.0000000000000000e+00 0 0 0
27 1 2.5000000000000001e-04 2.5000000000000001e-05 0.0000000000000000e+00 0 0.0000000000000000e+00 0.0000000000000000e+00 1.0000000000000000e+00 0 0 0
28 1 2.7500000000000002e-04 2.5000000000000001e-05 0.0000000000000000e+00 0 0.0000000000000000e+00 0.0000000000000000e+00 1.0000000000000000e+00 0 0 0
29 1 3.0000000000000003e-04 2.5000000000000001e-05 0.0000000000000000e+00 0 0.0000000000000000e+00 0.0000000000000000e+00 1.0000000000000000e+00 0 0 0
30 1 3.2500000000000004e-04 2.5000000000000001e-05 0.0000000000000000e+00 0 0.0000000000000000e+00 0.0000000000000000e+00 1.0000000000000000e+00 0 0 0
31 1 3.5000000000000000e-04 2.5000000000000001e-05 0.0000000000000000e+00 0 0.0000000000000000e+00 0.0000000000000000e+00 1.0000000000000000e+00 0 0 0
32 1 3.7500000000000001e-04 2.5000000000000001e-05 0.0000000000000000e+00 0 0.0000000000000000e+00 0.0000000000000000e+00 1.0000000000000000e+00 0 0 0
33 1 0.0000000000000000e+00 5.0000000000000002e-05 0.0000000000000000e+00 0 0.0000000000000000e+00 0.0000000000000000e+00 1.0000000000000000e+00 0 0 0
34 1 2.5000000000000001e-05 5.0000000000000002e-05 0.0000000000000000e+00 0 0.0000000000000000e+00 0.0000000000000000e+00 1.0000000000000000e+00 0 0 0
35 1 5.0000000000000002e-05 5.0000000000000002e-05 0.0000000000000000e+00 0 0.0000000000000000e+00 0.0000000000000000e+00 1.0000000000000000e+00 0 0 0
36 1 7.5000000000000007e-05 5.0000000000000002e-05 0.0000000000000000e+00 0 0.0000000000000000e+00 0.0000000000000000e+00 1.0000000000000000e+00 0 0 0
37 1 1.0000000000000000e-04 5.0000000000000002e-05 0.0000000000000000e+00 0 0.0000000000000000e+00 0.0000000000000000e+00 1.0000000000000000e+00 0 0 0
38 1 1.2500000000000000e-04 5.0000000000000002e-05 0.0000000000000000e+00 0 0.0000000000000000e+00 0.0000000000000000e+00 1.0000000000000000e+00 0 0 0
39 1 1.5000000000000001e-04 5.0000000000000002e-05 0.0000000000000000e+00 0 0.0000000000000000e+00 0.0000000000000000e+00 1.0000000000000000e+00 0 0 0
40 1 1.7500000000000000e-04 5.0000000000000002e-05 0.0000000000000000e+00 0 0.0000000000000000e+00 0.0000000000000000e+00 1.0000000000000000e+00 0 0 0
41 1 2.0000000000000001e-04 5.0000000000000002e-05 0.0000000000000000e+00 0 0.0000000000000000e+00 0.0000000000000000e+00 1.0000000000000000e+00 0 0 0
42 1 2.2500000000000002e-04 5.0000000000000002e-05 0.0000000000000000e+00 0 0.0000000000000000e+00 0.0000000000000000e+00 1.0000000000000000e+00 0 0 0
43 1 2.5000000000000001e-04 5.0000000000000002e-05 0.0000000000000000e+00 0 0.0000000000000000e+00 0.0000000000000000e+00 1.0000000000000000e+00 0 0 0
44 1 2.7500000000000002e-04 5.0000000000000002e-05 0.0000000000000000e+00 0 0.0000000000000000e+00 0.0000000000000000e+00 1.0000000000000000e+00 0 0 0
45 1 3.0000000000000003e-04 5.0000000000000002e-05 0.0000000000000000e+00 0 0.0000000000000000e+00 0.0000000000000000e+00 1.0000000000000000e+00 0 0 0
46 1 3.2500000000000004e-04 5.0000000000000002e-05 0.0000000000000000e+00 0 0.0000000000000000e+00 0.0000000000000000e+00 1.0000000000000000e+00 0 0 0
47 1 3.5000000000000000e-04 5.0000000000000002e-05 0.0000000000000000e+00 0 0.0000000000000000e+00 0.0000000000000000e+00 1.0000000000000000e+00 0 0 0
48 1 3.7500000000000001e-04 5.0000000000000002e-05 0.0000000000000000e+00 0 0.0000000000000000e+00 0.0000000000000000e+00 1.0000000000000000e+00 0 0 0
49 1 0.0000000000000000e+00 7.5000000000000007e-05 0.0000000000000000e+00 0 0.0000000000000000e+00 0.0000000000000000e+00 1.0000000000000000e+00 0 0 0
50 1 2.5000000000000001e-05 7.5000000000000007e-05 0.0000000000000000e+00 0 0.0000000000000000e+00 0.0000000000000000e+00 1.0000000000000000e+00 0 0 0
51 1 5.0000000000000002e-05 7.5000000000000007e-05 0.0000000000000000e+00 0 0.0000000000000000e+00 0.0000000000000000e+00 1.0000000000000000e+00 0 0 0
52 1 7.5000000000000007e-05 7.5000000000000007e-05 0.0000000000000000e+00 0 0.0000000000000000e+00 0.0000000000000000e+00 1.0000000000000000e+00 0 0 0
53 1 1.0000000000000000e-04 7.5000000000000007e-05 0.0000000000000000e+00 0 0.0000000000000000e+00 0.0000000000000000e+00 1.0000000000000000e+00 0 0 0
54 1 1.2500000000000000e-04 7.5000000000000007e-05 0.0000000000000000e+00 0 0.0000000000000000e+00 0.0000000000000000e+00 1.0000000000000000e+00 0 0 0
55 1 1.5000000000000001e-04 7.5000000000000007e-05 0.0000000000000000e+00 0 0.0000000000000000e+00 0.0000000000000000e+00 1.0000000000000000e+00 0 0 0
56 1 1.7500000000000000e-04 7.5000000000000007e-05 0.0000000000000000e+00 0 0.0000000000000000e+00 0.0000000000000000e+00 1.0000000000000000e+00 0 0 0
57 1 2.0000000000000001e-04 7.5000000000000007e-05 0.0000000000000000e+00 0 0.0000000000000000e+00 0.0000000000000000e+00 1.0000000000000000e+00 0 0 0
58 1 2.2500000000000002e-04 7.5000000000000007e-05 0.0000000000000000e+00 0 0.0000000000000000e+00 0.0000000000000000e+00 1.0000000000000000e+00 0 0 0
59 1 2.5000000000000001e-04 7.5000000000000007e-05 0.0000000000000000e+00 0 0.0000000000000000e+00 0.0000000000000000e+00 1.0000000000000000e+00 0 0 0
60 1 2.7500000000000002e-04 7.5000000000000007e-05 0.0000000000000000e+00 0 0.0000000000000000e+00 0.0000000000000000e+00 1.0000000000000000e+00 0 0 0
61 1 3.0000000000000003e-04 7.5000000000000007e-05 0.0000000000000000e+00 0 0.0000000000000000e+00 0.0000000000000000e+00 1.0000000000000000e+00 0 0 0
62 1 3.2500000000000004e-04 7.5000000000000007e-05 0.0000000000000000e+00 0 0.0000000000000000e+00 0.0000000000000000e+00 1.0000000000000000e+00 0 0 0
63 1 3.5000000000000000e-04 7.5000000000000007e-05 0.0000000000000000e+00 0 0.0000000000000000e+00 0.0000000000000000e+00 1.0000000000000000e+00 0 0 0
64 1 3.7500000000000001e-04 7.5000000000000007e-05 0.0000000000000000e+00 0 0.0000000000000000e+00 0.0000000000000000e+00 1.0000000000000000e+00 0 0 0
65 1 0.0000000000000000e+00 1.0000000000000000e-04 0.0000000000000000e+00 0 0.0000000000000000e+00 0.0000000000000000e+00 1.0000000000000000e+00 0 0 0
66 1 2.5000000000000001e-05 1.0000000000000000e-04 0.0000000000000000e+00 0 0.0000000000000000e+00 0.0000000000000000e+00 1.0000000000000000e+00 0 0 0
67 1 5.0000000000000002e-05 1.0000000000000000e-04 0.0000000000000000e+00 0 0.0000000000000000e+00 0.0000000000000000e+00 1.0000000000000000e+00 0 0 0
68 1 7.5000000000000007e-05 1.0000000000000000e-04 0.0000000000000000e+00 0 0.0000000000000000e+00 0.0000000000000000e+00 1.0000000000000000e+00 0 0 0
69 1 1.0000000000000000e-04 1.0000000000000000e-04 0.0000000000000000e+00 0 0.0000000000000000e+00 0.0000000000000000e+00 1.0000000000000000e+00 0 0 0
70 1 1.2500000000000000e-04 1.0000000000000000e-04 0.0000000000000000e+00 0 0.0000000000000000e+00 0.0000000000000000e+00 1.0000000000000000e+00 0 0 0
71 1 1.5000000000000001e-04 1.0000000000000000e-04 0.0000000000000000e+00 0 0.0000000000000000e+00 0.0000000000000000e+00 1.0000000000000000e+00 0 0 0
72 1 1.7500000000000000e-04 1.0000000000000000e-04 0.0000000000000000e+00 0 0.0000000000000000e+00 0.0000000000000000e+00 1.0000000000000000e+00 0 0 0
73 1 2.0000000000000001e-04 1.0000000000000000e-04 0.0000000000000000e+00 0 0.0000000000000000e+00 0.0000000000000000e+00 1.0000000000000000e+00 0 0 0
74 1 2.2500000000000002e-04 1.0000000000000000e-04 0.0000000000000000e+00 0 0.0000000000000000e+00 0.0000000000000000e+00 1.0000000000000000e+00 0 0 0
75 1 2.5000000000000001e-04 1.0000000000000000e-04 0.0000000000000000e+00 0 0.0000000000000000e+00 0.0000000000000000e+00 1.0000000000000000e+00 0 0 0
76 1 2.7500000000000002e-04 1.0000000000000000e-04 0.0000000000000000e+00 0 0.0000000000000000e+00 0.0000000000000000e+00 1.0000000000000000e+00 0 0 0
77 1 3.0000000000000003e-04 1.0000000000000000e-04 0.0000000000000000e+00 0 0.0000000000000000e+00 0.0000000000000000e+00 1.0000000000000000e+00 0 0 0
78 1 3.2500000000000004e-04 1.0000000000000000e-04 0.0000000000000000e+00 0 0.0000000000000000e+00 0.0000000000000000e+00 1.0000000000000000e+00 0 0 0
79 1 3.5000000000000000e-04 1.0000000000000000e-04 0.0000000000000000e+00 0 0.0000000000000000e+00 0.0000000000000000e+00 1.0000000000000000e+00 0 0 0
80 1 3.7500000000000001e-04 1.0000000000000000e-04 0.0000000000000000e+00 0 0.0000000000000000e+00 0.0000000000000000e+00 1.0000000000000000e+00 0 0 0
81 1 0.0000000000000000e+00 1.2500000000000000e-04 0.0000000000000000e+00 0 0.0000000000000000e+00 0.0000000000000000e+00 1.0000000000000000e+00 0 0 0
82 1 2.5000000000000001e-05 1.2500000000000000e-04 0.0000000000000000e+00 0 0.0000000000000000e+00 0.0000000000000000e+00 1.0000000000000000e+00 0 0 0
83 1 5.0000000000000002e-05 1.2500000000000000e-04 0.0000000000000000e+00 0 0.0000000000000000e+00 0.0000000000000000e+00 1.0000000000000000e+00 0 0 0
84 1 7.5000000000000007e-05 1.2500000000000000e-04 0.0000000000000000e+00 0 0.0000000000000000e+00 0.0000000000000000e+00 1.0000000000000000e+00 0 0 0
85 1 1.0000000000000000e-04 1.2500000000000000e-04 0.0000000000000000e+00 0 0.0000000000000000e+00 0.0000000000000000e+00 1.0000000000000000e+00 0 0 0
86 1 1.2500000000000000e-04 1.2500000000000000e-04 0.0000000000000000e+00 0 0.0000000000000000e+00 0.0000000000000000e+00 1.0000000000000000e+00 0 0 0
87 1 1.5000000000000001e-04 1.2500000000000000e-04 0.0000000000000000e+00 0 0.0000000000000000e+00 0.0000000000000000e+00 1.0000000000000000e+00 0 0 0
88 1 1.7500000000000000e-04 1.2500000000000000e-04 0.0000000000000000e+00 0 0.0000000000000000e+00 0.0000000000000000e+00 1.0000000000000000e+00 0 0 0
89 1 2.0000000000000001e-04 1.2500000000000000e-04 0.0000000000000000e+00 0 0.0000000000000000e+00 0.0000000000000000e+00 1.0000000000000000e+00 0 0 0
90 1 2.2500000000000002e-04 1.2500000000000000e-04 0.0000000000000000e+00 0 0.0000000000000000e+00 0.0000000000000000e+00 1.0000000000000000e+00 0 0 0
91 1 2.5000000000000001e-04 1.2500000000000000e-04 0.0000000000000000e+00 0 0.0000000000000000e+00 0.0000000000000000e+00 1.0000000000000000e+00 0 0 0
92 1 2.7500000000000002e-04 1.2500000000000000e-04 0.0000000000000000e+00 0 0.0000000000000000e+00 0.0000000000000000e+00 1.0000000000000000e+00 0 0 0
93 1 3.0000000000000003e-04 1.2500000000000000e-04 0.0000000000000000e+00 0 0.0000000000000000e+00 0.0000000000000000e+00 1.0000000000000000e+00 0 0 0
94 1 3.2500000000000004e-04 1.2500000000000000e-04 0.0000000000000000e+00 0 0.0000000000000000e+00 0.0000000000000000e+00 1.0000000000000000e+00 0 0 0
95 1 3.5000000000000000e-04 1.2500000000000000e-04 0.0000000000000000e+00 0 0.0000000000000000e+00 0.0000000000000000e+00 1.0000000000000000e+00 0 0 0
96 1 3.7500000000000001e-04 1.2500000000000000e-04 0.0000000000000000e+00 0 0.0000000000000000e+00 0.0000000000000000e+00 1.0000000000000000e+00 0 0 0
97 1 0.0000000000000000e+00 1.5000000000000001e-04 0.0000000000000000e+00 0 0.0000000000000000e+00 0.0000000000000000e+00 1.0000000000000000e+00 0 0 0
98 1 2.5000000000000001e-05 1.5000000000000001e-04 0.0000000000000000e+00 0 0.0000000000000000e+00 0.0000000000000000e+00 1.0000000000000000e+00 0 0 0
99 1 5.0000000000000002e-05 1.5000000000000001e-04 0.0000000000000000e+00 0 0.0000000000000000e+00 0.0000000000000000e+00 1.0000000000000000e+00 0 0 0
100 1 7.5000000000000007e-05 1.5000000000000001e-04 0.0000000000000000e+00 0 0.0000000000000000e+00 0.0000000000000000e+00 1.0000000000000000e+00 0 0 0
101 1 1.0000000000000000e-04 1.5000000000000001e-04 0.0000000000000000e+00 0 0.0000000000000000e+00 0.0000000000000000e+00 1.0000000000000000e+00 0 0 0
102 1 1.2500000000000000e-04 1.5000000000000001e-04 0.0000000000000000e+00 0 0.0000000000000000e+00 0.0000000000000000e+00 1.0000000000000000e+00 0 0 0
103 1 1.5000000000000001e-04 1.5000000000000001e-04 0.0000000000000000e+00 0 0.0000000000000000e+00 0.0000000000000000e+00 1.0000000000000000e+00 0 0 0
104 1 1.7500000000000000e-04 1.5000000000000001e-04 0.0000000000000000e+00 0 0.0000000000000000e+00 0.0000000000000000e+00 1.0000000000000000e+00 0 0 0
105 1 2.0000000000000001e-04 1.5000000000000001e-04 0.0000000000000000e+00 0 0.0000000000000000e+00 0.0000000000000000e+00 1.0000000000000000e+00 0 0 0
106 1 2.2500000000000002e-04 1.5000000000000001e-04 0.0000000000000000e+00 0 0.0000000000000000e+00 0.0000000000000000e+00 1.0000000000000000e+00 0 0 0
107 1 2.5000000000000001e-04 1.5000000000000001e-04 0.0000000000000000e+00 0 0.0000000000000000e+00 0.0000000000000000e+00 1.0000000000000000e+00 0 0 0
108 1 2.7500000000000002e-04 1.5000000000000001e-04 0.0000000000000000e+00 0 0.0000000000000000e+00 0.0000000000000000e+00 1.0000000000000000e+00 0 0 0
109 1 3.0000000000000003e-04 1.5000000000000001e-04 0.0000000000000000e+00 0 0.0000000000000000e+00 0.0000000000000000e+00 1.0000000000000000e+00 0 0 0
110 1 3.2500000000000004e-04 1.5000000000000001e-04 0.0000000000000000e+00 0 0.0000000000000000e+00 0.0000000000000000e+00 1.0000000000000000e+00 0 0 0
111 1 3.5000000000000000e-04 1.5000000000000001e-04 0.0000000000000000e+00 0 0.0000000000000000e+00 0.0000000000000000e+00 1.0000000000000000e+00 0 0 0
112 1 3.7500000000000001e-04 1.5000000000000001e-04 0.0000000000000000e+00 0 0.0000000000000000e+00 0.0000000000000000e+00 1.0000000000000000e+00 0 0 0
113 1 0.0000000000000000e+00 1.7500000000000000e-04 0.0000000000000000e+00 0 0.0000000000000000e+00 0.0000000000000000e+00 1.0000000000000000e+00 0 0 0
114 1 2.5000000000000001e-05 1.7500000000000000e-04 0.0000000000000000e+00 0 0.0000000000000000e+00 0.0000000000000000e+00 1.0000000000000000e+00 0 0 0
115 1 5.0000000000000002e-05 1.7500000000000000e-04 0.0000000000000000e+00 0 0.0000000000000000e+00 0.0000000000000000e+00 1.0000000000000000e+00 0 0 0
116 1 7.5000000000000007e-05 1.7500000000000000e-04 0.0000000000000000e+00 0 0.0000000000000000e+00 0.0000000000000000e+00 1.0000000000000000e+00 0 0 0
117 1 1.0000000000000000e-04 1.7500000000000000e-04 0.0000000000000000e+00 0 0.0000000000000000e+00 0.0000000000000000e+00 1.0000000000000000e+00 0 0 0
118 1 1.2500000000000000e-04 1.7500000000000000e-04 0.0000000000000000e+00 0 0.0000000000000000e+00 0.0000000000000000e+00 1.0000000000000000e+00 0 0 0
119 1 1.5000000000000001e-04 1.7500000000000000e-04 0.0000000000000000e+00 0 0.0000000000000000e+00 0.0000000000000000e+00 1.0000000000000000e+00 0 0 0
120 1 1.7500000000000000e-04 1.7500000000000000e-04 0.0000000000000000e+00 0 0.0000000000000000e+00 0.0000000000000000e+00 1.0000000000000000e+00 0 0 0
121 1 2.0000000000000001e-04 1.7500000000000000e-04 0.0000000000000000e+00 0 0.0000000000000000e+00 0.0000000000000000e+00 1.0000000000000000e+00 0 0 0
122 1 2.2500000000000002e-04 1.7500000000000000e-04 0.0000000000000000e+00 0 0.0000000000000000e+00 0.0000000000000000e+00 1.0000000000000000e+00 0 0 0
123 1 2.5000000000000001e-04 1.7500000000000000e-04 0.0000000000000000e+00 0 0.0000000000000000e+00 0.0000000000000000e+00 1.0000000000000000e+00 0 0 0
124 1 2.7500000000000002e-04 1.7500000000000000e-04 0.0000000000000000e+00 0 0.0000000000000000e+00 0.0000000000000000e+00 1.0000000000000000e+00 0 0 0
125 1 3.0000000000000003e-04 1.7500000000000000e-04 0.0000000000000000e+00 0 0.0000000000000000e+00 0.0000000000000000e+00 1.0000000000000000e+00 0 0 0
126 1 3.2500000000000004e-04 1.7500000000000000e-04 0.0000000000000000e+00 0 0.0000000000000000e+00 0.0000000000000000e+00 1.0000000000000000e+00 0 0 0
127 1 3.5000000000000000e-04 1.7500000000000000e-04 0.0000000000000000e+00 0 0.0000000000000000e+00 0.0000000000000000e+00 1.0000000000000000e+00 0 0 0
128 1 3.7500000000000001e-04 1.7500000000000000e-04 0.0000000000000000e+00 0 0.0000000000000000e+00 0.0000000000000000e+00 1.0000000000000000e+00 0 0 0
129 1 0.0000000000000000e+00 2.0000000000000001e-04 0.0000000000000000e+00 0 0.0000000000000000e+00 0.0000000000000000e+00 1.0000000000000000e+00 0 0 0
130 1 2.5000000000000001e-05 2.0000000000000001e-04 0.0000000000000000e+00 0 0.0000000000000000e+00 0.0000000000000000e+00 1.0000000000000000e+00 0 0 0
131 1 5.0000000000000002e-05 2.0000000000000001e-04 0.0000000000000000e+00 0 0.0000000000000000e+00 0.0000000000000000e+00 1.0000000000000000e+00 0 0 0
132 1 7.5000000000000007e-05 2.0000000000000001e-04 0.0000000000000000e+00 0 0.0000000000000000e+00 0.0000000000000000e+00 1.0000000000000000e+00 0 0 0
133 1 1.0000000000000000e-04 2.0000000000000001e-04 0.0000000000000000e+00 0 0.0000000000000000e+00 0.0000000000000000e+00 1.0000000000000000e+00 0 0 0
134 1 1.2500000000000000e-04 2.0000000000000001e-04 0.0000000000000000e+00 0 0.0000000000000000e+00 0.0000000000000000e+00 1.0000000000000000e+00 0 0 0
135 1 1.5000000000000001e-04 2.0000000000000001e-04 0.0000000000000000e+00 0 0.0000000000000000e+00 0.0000000000000000e+00 1.0000000000000000e+00 0 0 0
136 1 1.7500000000000000e-04 2.0000000000000001e-04 0.0000000000000000e+00 0 0.0000000000000000e+00 0.0000000000000000e+00 1.0000000000000000e+00 0 0 0
137 1 2.0000000000000001e-04 2.0000000000000001e-04 0.0000000000000000e+00 0 0.0000000000000000e+00 0.0000000000000000e+00 1.0000000000000000e+00 0 0 0
138 1 2.2500000000000002e-04 2.0000000000000001e-04 0.0000000000000000e+00 0 0.0000000000000000e+00 0.0000000000000000e+00 1.0000000000000000e+00 0 0 0
139 1 2.5000000000000001e-04 2.0000000000000001e-04 0.0000000000000000e+00 0 0.0000000000000000e+00 0.0000000000000000e+00 1.0000000000000000e+00 0 0 0
140 1 2.7500000000000002e-04 2.0000000000000001e-04 0.0000000000000000e+00 0 0.0000000000000000e+00 0.0000000000000000e+00 1.0000000000000000e+00 0 0 0
141 1 3.0000000000000003e-04 2.0000000000000001e-04 0.0000000000000000e+00 0 0.0000000000000000e+00 0.0000000000000000e+00 1.0000000000000000e+00 0 0 0
142 1 3.2500000000000004e-04 2.0000000000000001e-04 0.0000000000000000e+00 0 0.0000000000000000e+00 0.0000000000000000e+00 1.0000000000000000e+00 0 0 0
143 1 3.5000000000000000e-04 2.0000000000000001e-04 0.0000000000000000e+00 0 0.0000000000000000e+00 0.0000000000000000e+00 1.0000000000000000e+00 0 0 0
144 1 3.7500000000000001e-04 2.0000000000000001e-04 0.0000000000000000e+00 0 0.0000000000000000e+00 0.0000000000000000e+00 1.0000000000000000e+00 0 0 0
145 1 0.0000000000000000e+00 2.2500000000000002e-04 0.0000000000000000e+00 0 0.0000000000000000e+00 0.0000000000000000e+00 1.0000000000000000e+00 0 0 0
146 1 2.5000000000000001e-05 2.2500000000000002e-04 0.0000000000000000e+00 0 0.0000000000000000e+00 0.0000000000000000e+00 1.0000000000000000e+00 0 0 0
147 1 5.0000000000000002e-05 2.2500000000000002e-04 0.0000000000000000e+00 0 0.0000000000000000e+00 0.0000000000000000e+00 1.0000000000000000e+00 0 0 0
148 1 7.5000000000000007e-05 2.2500000000000002e-04 0.0000000000000000e+00 0 0.0000000000000000e+00 0.0000000000000000e+00 1.0000000000000000e+00 0 0 0
149 1 1.0000000000000000e-04 2.2500000000000002e-04 0.0000000000000000e+00 0 0.0000000000000000e+00 0.0000000000000000e+00 1.0000000000000000e+00 0 0 0
150 1 1.2500000000000000e-04 2.2500000000000002e-04 0.0000000000000000e+00 0 0.0000000000000000e+00 0.0000000000000000e+00 1.0000000000000000e+00 0 0 0
151 1 1.5000000000000001e-04 2.2500000000000002e-04 0.0000000000000000e+00 0 0.0000000000000000e+00 0.0000000000000000e+00 1.0000000000000000e+00 0 0 0
152 1 1.7500000000000000e-04 2.2500000000000002e-04 0.0000000000000000e+00 0 0.0000000000000000e+00 0.0000000000000000e+00 1.0000000000000000e+00 0 0 0
153 1 2.0000000000000001e-04 2.2500000000000002e-04 0.0000000000000000e+00 0 0.0000000000000000e+00 0.0000000000000000e+00 1.0000000000000000e+00 0 0 0
154 1 2.2500000000000002e-04 2.2500000000000002e-04 0.0000000000000000e+00 0 0.0000000000000000e+00 0.0000000000000000e+00 1.0000000000000000e+00 0 0 0
155 1 2.5000000000000001e-04 2.2500000000000002e-04 0.0000000000000000e+00 0 0.0000000000000000e+00 0.0000000000000000e+00 1.0000000000000000e+00 0 0 0
156 1 2.7500000000000002e-04 2.2500000000000002e-04 0.0000000000000000e+00 0 0.0000000000000000e+00 0.0000000000000000e+00 1.0000000000000000e+00 0 0 0
157 1 3.0000000000000003e-04 2.2500000000000002e-04 0.0000000000000000e+00 0 0.0000000000000000e+00 0.0000000000000000e+00 1.0000000000000000e+00 0 0 0
158 1 3.2500000000000004e-04 2.2500000000000002e-04 0.0000000000000000e+00 0 0.0000000000000000e+00 0.0000000000000000e+00 1.0000000000000000e+00 0 0 0
159 1 3.5000000000000000e-04 2.2500000000000002e-04 0.0000000000000000e+00 0 0.0000000000000000e+00 0.0000000000000000e+00 1.0000000000000000e+00 0 0 0
160 1 3.7500000000000001e-04 2.2500000000000002e-04 0.0000000000000000e+00 0 0.0000000000000000e+00 0.0000000000000000e+00 1.0000000000000000e+00 0 0 0
161 1 0.0000000000000000e+00 2.5000000000000001e-04 0.0000000000000000e+00 0 0.0000000000000000e+00 0.0000000000000000e+00 1.0000000000000000e+00 0 0 0
162 1 2.5000000000000001e-05 2.5000000000000001e-04 0.0000000000000000e+00 0 0.0000000000000000e+00 0.0000000000000000e+00 1.0000000000000000e+00 0 0 0
163 1 5.0000000000000002e-05 2.5000000000000001e-04 0.0000000000000000e+00 0 0.0000000000000000e+00 0.0000000000000000e+00 1.0000000000000000e+00 0 0 0
164 1 7.5000000000000007e-05 2.5000000000000001e-04 0.0000000000000000e+00 0 0.0000000000000000e+00 0.0000000000000000e+00 1.0000000000000000e+00 0 0 0
165 1 1.0000000000000000e-04 2.5000000000000001e-04 0.0000000000000000e+00 0 0.0000000000000000e+00 0.0000000000000000e+00 1.0000000000000000e+00 0 0 0
166 1 1.2500000000000000e-04 2.5000000000000001e-04 0.0000000000000000e+00 0 0.0000000000000000e+00 0.0000000000000000e+00 1.0000000000000000e+00 0 0 0
167 1 1.5000000000000001e-04 2.5000000000000001e-04 0.0000000000000000e+00 0 0.0000000000000000e+00 0.0000000000000000e+00 1.0000000000000000e+00 0 0 0
168 1 1.7500000000000000e-04 2.5000000000000001e-04 0.0000000000000000e+00 0 0.0000000000000000e+00 0.0000000000000000e+00 1.0000000000000000e+00 0 0 0
169 1 2.0000000000000001e-04 2.5000000000000001e-04 0.0000000000000000e+00 0 0.0000000000000000e+00 0.0000000000000000e+00 1.0000000000000000e+00 0 0 0
170 1 2.2500000000000002e-04 2.5000000000000001e-04 0.0000000000000000e+00 0 0.0000000000000000e+00 0.0000000000000000e+00 1.0000000000000000e+00 0 0 0
171 1 2.5000000000000001e-04 2.5000000000000001e-04 0.0000000000000000e+00 0 0.0000000000000000e+00 0.0000000000000000e+00 1.0000000000000000e+00 0 0 0
172 1 2.7500000000000002e-04 2.5000000000000001e-04 0.0000000000000000e+00 0 0.0000000000000000e+00 0.0000000000000000e+00 1.0000000000000000e+00 0 0 0
173 1 3.0000000000000003e-04 2.5000000000000001e-04 0.0000000000000000e+00 0 0.0000000000000000e+00 0.0000000000000000e+00 1.0000000000000000e+00 0 0 0
174 1 3.2500000000000004e-04 2.5000000000000001e-04 0.0000000000000000e+00 0 0.0000000000000000e+00 0.0000000000000000e+00 1.0000000000000000e+00 0 0 0
175 1 3.5000000000000000e-04 2.5000000000000001e-04 0.0000000000000000e+00 0 0.0000000000000000e+00 0.0000000000000000e+00 1.0000000000000000e+00 0 0 0
176 1 3.7500000000000001e-04 2.5000000000000001e-04 0.0000000000000000e+00 0 0.0000000000000000e+00 0.0000000000000000e+00 1.0000000000000000e+00 0 0 0
177 1 0.0000000000000000e+00 2.7500000000000002e-04 0.0000000000000000e+00 0 0.0000000000000000e+00 0.0000000000000000e+00 1.0000000000000000e+00 0 0 0
178 1 2.5000000000000001e-05 2.7500000000000002e-04 0.0000000000000000e+00 0 0.0000000000000000e+00 0.0000000000000000e+00 1.0000000000000000e+00 0 0 0
179 1 5.0000000000000002e-05 2.7500000000000002e-04 0.0000000000000000e+00 0 0.0000000000000000e+00 0.0000000000000000e+00 1.0000000000000000e+00 0 0 0
180 1 7.5000000000000007e-05 2.7500000000000002e-04 0.0000000000000000e+00 0 0.0000000000000000e+00 0.0000000000000000e+00 1.0000000000000000e+00 0 0 0
181 1 1.0000000000000000e-04 2.7500000000000002e-04 0.0000000000000000e+00 0 0.0000000000000000e+00 0.0000000000000000e+00 1.0000000000000000e+00 0 0 0
182 1 1.2500000000000000e-04 2.7500000000000002e-04 0.0000000000000000e+00 0 0.0000000000000000e+00 0.0000000000000000e+00 1.0000000000000000e+00 0 0 0
183 1 1.5000000000000001e-04 2.7500000000000002e-04 0.0000000000000000e+00 0 0.0000000000000000e+00 0.0000000000000000e+00 1.0000000000000000e+00 0 0 0
184 1 1.7500000000000000e-04 2.7500000000000002e-04 0.0000000000000000e+00 0 0.0000000000000000e+00 0.0000000000000000e+00 1.0000000000000000e+00 0 0 0
185 1 2.0000000000000001e-04 2.7500000000000002e-04 0.0000000000000000e+00 0 0.0000000000000000e+00 0.0000000000000000e+00 1.0000000000000000e+00 0 0 0
186 1 2.2500000000000002e-04 2.7500000000000002e-04 0.0000000000000000e+00 0 0.0000000000000000e+00 0.0000000000000000e+00 1.0000000000000000e+00 0 0 0
187 1 2.5000000000000001e-04 2.7500000000000002e-04 0.0000000000000000e+00 0 0.0000000000000000e+00 0.0000000000000000e+00 1.0000000000000000e+00 0 0 0
188 1 2.7500000000000002e-04 2.7500000000000002e-04 0.0000000000000000e+00 0 0.0000000000000000e+00 0.0000000000000000e+00 1.0000000000000000e+00 0 0 0
189 1 3.0000000000000003e-04 2.7500000000000002e-04 0.0000000000000000e+00 0 0.0000000000000000e+00 0.0000000000000000e+00 1.0000000000000000e+00 0 0 0
190 1 3.2500000000000004e-04 2.7500000000000002e-04 0.0000000000000000e+00 0 0.0000000000000000e+00 0.0000000000000000e+00 1.0000000000000000e+00 0 0 0
191 1 3.5000000000000000e-04 2.7500000000000002e-04 0.0000000000000000e+00 0 0.0000000000000000e+00 0.0000000000000000e+00 1.0000000000000000e+00 0 0 0
192 1 3.7500000000000001e-04 2.7500000000000002e-04 0.0000000000000000e+00 0 0.0000000000000000e+00 0.0000000000000000e+00 1.0000000000000000e+00 0 0 0
193 1 0.0000000000000000e+00 3.0000000000000003e-04 0.0000000000000000e+00 0 0.0000000000000000e+00 0.0000000000000000e+00 1.0000000000000000e+00 0 0 0
194 1 2.5000000000000001e-05 3.0000000000000003e-04 0.0000000000000000e+00 0 0.0000000000000000e+00 0.0000000000000000e+00 1.0000000000000000e+00 0 0 0
195 1 5.0000000000000002e-05 3.0000000000000003e-04 0.0000000000000000e+00 0 0.0000000000000000e+00 0.0000000000000000e+00 1.0000000000000000e+00 0 0 0
196 1 7.5000000000000007e-05 3.0000000000000003e-04 0.0000000000000000e+00 0 0.0000000000000000e+00 0.0000000000000000e+00 1.0000000000000000e+00 0 0 0