ITEM: TIMESTEP
3300
ITEM: NUMBER OF ATOMS
2220
ITEM: BOX BOUNDS xy xz yz pp pp pp
0 0.000414127 5.35266e-05
0 0.0009015 0
0 9.015e-05 0
ITEM: ATOMS x y z vx vy vy c_rho_peratom id type 
9.05159e-05 1.20135e-05 1.97086e-06 0.000596644 -4.80127e-06 -4.80127e-06 1239.74 1 1 
0.000411075 0.000893939 7.96966e-05 0.0446931 -5.5826e-06 -5.5826e-06 1219.43 2 1 
0.000139739 1.23818e-05 8.05393e-06 0.000613073 4.75936e-06 4.75936e-06 1200.41 3 1 
8.7995e-05 0.000886891 8.04784e-07 0.0443562 4.44342e-06 4.44342e-06 1255.35 4 1 
0.000328234 0.000888647 8.88499e-05 0.0444359 3.19537e-06 3.19537e-06 1236.94 5 1 
0.000225582 2.05737e-05 8.22609e-05 0.00104666 -7.54262e-06 -7.54262e-06 1221.92 6 1 
0.000142335 0.000896719 8.72249e-06 0.0448306 7.75267e-06 7.75267e-06 1228.93 7 1 
0.000260004 1.01966e-05 8.25086e-05 0.000520852 -6.60485e-06 -6.60485e-06 1250.28 8 1 
0.000301699 1.22021e-05 1.12328e-06 0.000623898 1.10233e-07 1.10233e-07 1200.2 9 1 
0.000303587 2.79681e-05 8.19863e-05 0.00138976 5.89269e-06 5.89269e-06 1188.54 10 1 
0.000336175 1.49881e-05 5.12302e-06 0.000755391 -1.76944e-06 -1.76944e-06 1189.27 11 1 
1.46846e-05 1.52414e-05 6.42757e-06 0.000755419 5.08063e-06 5.08063e-06 1165.43 12 1 
0.000298263 0.000893325 3.51634e-06 0.0446473 6.15358e-06 6.15358e-06 1215.43 13 1 
5.05984e-05 7.03087e-06 7.83966e-06 0.000354137 -1.43731e-05 -1.43731e-05 1230.6 14 1 
0.000227056 0.000897375 1.7516e-05 0.0448663 5.65859e-06 5.65859e-06 1169.17 15 1 
8.08992e-05 4.0232e-05 8.45454e-05 0.00202334 -7.66526e-06 -7.66526e-06 1196.68 16 1 
0.000117561 3.72347e-05 9.43974e-06 0.0018572 5.86452e-06 5.86452e-06 1212.67 17 1 
0.000131647 3.15431e-05 4.78237e-06 0.00158553 4.17643e-06 4.17643e-06 1185.2 18 1 
0.000160596 5.59503e-05 8.7065e-05 0.0028098 -1.8611e-06 -1.8611e-06 1207.47 19 1 
0.000178218 3.04632e-05 1.64927e-05 0.00153161 -9.5833e-06 -9.5833e-06 1187.46 20 1 
0.00020006 3.88776e-05 1.13448e-06 0.00192288 1.13394e-05 1.13394e-05 1191.87 21 1 
0.000219882 3.01192e-05 6.02152e-06 0.00149581 2.8801e-06 2.8801e-06 1203.23 22 1 
0.000254375 3.05555e-05 8.53786e-05 0.0015466 -2.07035e-05 -2.07035e-05 1215.85 23 1 
0.000287174 4.85211e-05 1.55763e-05 0.0024225 -9.41878e-06 -9.41878e-06 1205.98 24 1 
0.000302321 4.74556e-05 7.81411e-05 0.0023774 -6.95138e-06 -6.95138e-06 1219.91 25 1 
0.000330223 3.13136e-05 4.27107e-06 0.00156634 -9.71161e-06 -9.71161e-06 1213.37 26 1 
0.000346202 3.32009e-05 1.59922e-05 0.00166919 -8.46447e-06 -8.46447e-06 1223.42 27 1 
1.03268e-05 3.57262e-05 2.63079e-06 0.00178669 9.47507e-06 9.47507e-06 1199.79 28 1 
5.1499e-05 4.56968e-05 8.94287e-05 0.00228202 1.59759e-05 1.59759e-05 1213.13 29 1 
6.45946e-05 3.79815e-05 8.28135e-05 0.00190025 -1.5065e-05 -1.5065e-05 1192.72 30 1 
0.000117833 6.52096e-05 8.31779e-05 0.00326447 -8.41874e-06 -8.41874e-06 1207.64 31 1 
0.00012084 4.1341e-05 6.02097e-07 0.00206527 -1.33065e-06 -1.33065e-06 1196.93 32 1 
0.000157492 7.24074e-05 2.79138e-06 0.00363416 -1.65437e-05 -1.65437e-05 1195.74 33 1 
0.000164841 4.72388e-05 8.78581e-05 0.00235326 3.10259e-06 3.10259e-06 1204.17 34 1 
0.000206735 6.35271e-05 3.71092e-06 0.00318742 -1.19012e-05 -1.19012e-05 1177.07 35 1 
0.0002348 6.23428e-05 5.0879e-06 0.0031113 -1.99149e-05 -1.99149e-05 1177.51 36 1 
0.00023717 5.83156e-05 3.02916e-06 0.00291017 -4.53224e-06 -4.53224e-06 1177.47 37 1 
0.000258852 5.35483e-05 9.0144e-05 0.00267967 -2.65755e-06 -2.65755e-06 1184.64 38 1 
0.000298761 5.18012e-05 1.00725e-06 0.00258212 -2.44258e-06 -2.44258e-06 1210.57 39 1 
0.000325183 5.76437e-05 8.99475e-06 0.00288738 -4.65413e-06 -4.65413e-06 1209.68 40 1 
0.000348198 6.23343e-05 4.78522e-06 0.00312069 8.0735e-06 8.0735e-06 1220.54 41 1 
8.18229e-06 6.05694e-05 8.60356e-05 0.00302041 -3.8694e-06 -3.8694e-06 1215.54 42 1 
3.32829e-05 4.81355e-05 7.06879e-06 0.002412 9.16562e-06 9.16562e-06 1211.35 43 1 
4.6231e-05 5.4536e-05 8.99425e-05 0.00272564 -1.76117e-06 -1.76117e-06 1216.56 44 1 
8.97828e-05 5.67886e-05 3.54366e-06 0.00284207 4.6024e-06 4.6024e-06 1189.8 45 1 
0.00016241 8.25806e-05 2.38052e-06 0.0041235 1.04843e-05 1.04843e-05 1185.39 46 1 
0.000156709 7.12056e-05 8.84393e-05 0.00356339 -1.71204e-06 -1.71204e-06 1197.33 47 1 
0.00018871 7.90927e-05 2.45476e-07 0.00394871 2.78373e-06 2.78373e-06 1189.41 48 1 
0.000229506 8.60788e-05 3.68508e-06 0.00431657 -3.35059e-06 -3.35059e-06 1209.54 49 1 
0.000241619 8.0517e-05 1.00916e-05 0.00402386 4.22227e-06 4.22227e-06 1204.65 50 1 
0.000269543 8.57569e-05 7.59297e-05 0.00428684 -8.20469e-06 -8.20469e-06 1201.59 51 1 
0.000307757 8.95866e-05 2.47393e-06 0.00447166 3.15402e-06 3.15402e-06 1201.63 52 1 
0.00032719 8.00523e-05 7.54193e-06 0.00399294 -3.50449e-06 -3.50449e-06 1200.02 53 1 
0.000349225 8.4592e-05 4.33124e-06 0.0042182 -4.48124e-06 -4.48124e-06 1202.61 54 1 
0.000360637 9.13626e-05 8.98998e-05 0.00457618 -6.46941e-06 -6.46941e-06 1194.78 55 1 
3.02628e-05 8.4375e-05 8.40327e-05 0.00420183 1.14842e-05 1.14842e-05 1215.32 56 1 
5.67437e-05 8.08253e-05 5.97023e-06 0.004037 1.53392e-05 1.53392e-05 1192.59 57 1 
9.33354e-05 9.34281e-05 8.70277e-05 0.00467052 4.45116e-06 4.45116e-06 1218.61 58 1 
0.000100864 8.92788e-05 2.55347e-06 0.00446924 1.29126e-06 1.29126e-06 1205.8 59 1 
0.000114998 7.80207e-05 1.03067e-05 0.00391133 -6.258e-06 -6.258e-06 1192.42 60 1 
0.000174421 0.00010727 1.29238e-05 0.00536442 3.49469e-06 3.49469e-06 1222.75 61 1 
0.000202761 0.000106504 4.77411e-06 0.00533784 -6.12061e-07 -6.12061e-07 1197.01 62 1 
0.000235784 0.000110508 8.1573e-05 0.00552414 -7.11233e-06 -7.11233e-06 1209.84 63 1 
0.000255992 0.000103422 5.03844e-06 0.00516776 8.82828e-06 8.82828e-06 1210.88 64 1 
0.000292277 0.000103065 9.24421e-06 0.00515355 7.48825e-06 7.48825e-06 1185.15 65 1 
0.000314293 0.000112652 3.29034e-06 0.0056373 2.55223e-06 2.55223e-06 1228.82 66 1 
0.00031834 9.84412e-05 4.15487e-06 0.00492936 -7.24812e-06 -7.24812e-06 1219.72 67 1 
0.000364048 0.000106267 1.95439e-06 0.00531881 -3.84327e-06 -3.84327e-06 1184.5 68 1 
7.07363e-06 0.000113369 3.1996e-07 0.00567341 -1.00803e-05 -1.00803e-05 1184.07 69 1 
3.14394e-05 9.91239e-05 8.81321e-05 0.00495182 6.4192e-06 6.4192e-06 1211.38 70 1 
5.7845e-05 0.000101498 6.70157e-06 0.00506376 1.63815e-06 1.63815e-06 1178.12 71 1 
0.000100733 0.000113406 2.66058e-06 0.00566626 5.9667e-06 5.9667e-06 1205.72 72 1 
0.00012215 0.000110112 1.31301e-07 0.0055038 5.32996e-07 5.32996e-07 1167.4 73 1 
0.000149035 0.000114376 5.62548e-06 0.00572526 -3.01369e-06 -3.01369e-06 1180.02 74 1 
0.000163147 0.000107803 6.42071e-06 0.00539562 -6.27102e-07 -6.27102e-07 1201.16 75 1 
0.000201483 0.000121803 7.34523e-06 0.00608532 -4.89755e-06 -4.89755e-06 1185.13 76 1 
0.000251984 0.000128393 8.66867e-05 0.00641388 1.26656e-05 1.26656e-05 1174.64 77 1 
0.000274364 0.000130144 1.01356e-05 0.00650889 2.89334e-06 2.89334e-06 1162.35 78 1 
0.00030774 0.000132191 5.59173e-06 0.00661056 -1.84133e-07 -1.84133e-07 1224.12 79 1 
0.000324631 0.00013315 3.24994e-06 0.00666046 -1.02759e-05 -1.02759e-05 1197.76 80 1 
0.00034772 0.000133269 3.28636e-06 0.006647 7.81518e-06 7.81518e-06 1164.86 81 1 
2.0601e-05 0.000140864 5.57863e-06 0.00704418 9.31969e-07 9.31969e-07 1197.88 82 1 
3.87344e-05 0.000132681 4.44882e-07 0.00663271 -4.44991e-06 -4.44991e-06 1184.81 83 1 
7.44642e-05 0.000130426 1.23503e-05 0.00652797 4.687e-06 4.687e-06 1215.19 84 1 
7.59074e-05 0.000130203 3.36888e-06 0.00652388 -1.09372e-05 -1.09372e-05 1209.42 85 1 
0.000107778 0.00013301 8.83298e-05 0.00666163 -5.23952e-06 -5.23952e-06 1212.15 86 1 
0.000129886 0.00012896 7.13539e-07 0.0064331 2.28957e-06 2.28957e-06 1185.38 87 1 
0.000167915 0.0001321 9.0068e-05 0.0066029 -4.37939e-06 -4.37939e-06 1191.39 88 1 
0.000185451 0.000129446 8.3436e-05 0.00647055 9.16374e-06 9.16374e-06 1190.24 89 1 
0.000239511 0.000140726 1.78219e-06 0.0070394 2.15426e-06 2.15426e-06 1181.74 90 1 
0.000260309 0.000147446 1.50126e-05 0.00738219 9.98601e-07 9.98601e-07 1168.2 91 1 
0.000304839 0.000158267 8.61707e-05 0.00792666 -1.0643e-05 -1.0643e-05 1215.1 92 1 
0.000313074 0.000162701 5.12144e-06 0.00813474 8.44721e-06 8.44721e-06 1203.23 93 1 
0.000338713 0.000152963 8.95526e-05 0.00763897 7.10558e-06 7.10558e-06 1174.83 94 1 
0.000357559 0.000152751 4.15659e-06 0.00764042 9.06264e-06 9.06264e-06 1194.63 95 1 
3.4694e-05 0.000144249 5.5468e-06 0.00721927 1.16437e-06 1.16437e-06 1195.08 96 1 
6.83629e-05 0.000167788 3.59205e-06 0.00838331 -1.45358e-06 -1.45358e-06 1206.89 97 1 
7.53258e-05 0.000155061 8.30672e-05 0.007747 5.92632e-08 5.92632e-08 1202.07 98 1 
9.3275e-05 0.000152658 8.38782e-05 0.0076314 2.20664e-06 2.20664e-06 1222.24 99 1 
0.000125932 0.000157921 8.65303e-05 0.00789818 1.67086e-05 1.67086e-05 1187.44 100 1 
0.000147336 0.000150448 4.3276e-06 0.00750624 9.00149e-06 9.00149e-06 1187.55 101 1 
0.000164633 0.000155758 8.00039e-05 0.00777668 5.76235e-06 5.76235e-06 1187.23 102 1 
0.000190621 0.000157064 8.75891e-05 0.00785993 -4.20092e-06 -4.20092e-06 1213.93 103 1 
0.000216251 0.000153099 7.80462e-05 0.00765314 6.39659e-06 6.39659e-06 1195.17 104 1 
0.000253297 0.000163165 8.89721e-05 0.00815567 6.30817e-06 6.30817e-06 1192.64 105 1 
0.000300449 0.000179371 7.72682e-06 0.00896728 -8.63419e-06 -8.63419e-06 1189.4 106 1 
0.00033506 0.0001711 8.33906e-05 0.00854403 -6.62823e-06 -6.62823e-06 1185.69 107 1 
0.000365327 0.000179878 2.06035e-07 0.0089964 -8.22979e-06 -8.22979e-06 1205.77 108 1 
1.42082e-05 0.000179438 8.54168e-05 0.00896185 2.9317e-06 2.9317e-06 1195.53 109 1 
4.98644e-05 0.000179561 1.27207e-05 0.00898637 -2.02927e-05 -2.02927e-05 1198.82 110 1 
7.89451e-05 0.000188533 5.43849e-06 0.00942947 -9.41034e-06 -9.41034e-06 1196.24 111 1 
0.000112226 0.00018877 6.45478e-06 0.00943044 -7.21792e-06 -7.21792e-06 1213.17 112 1 
0.000119608 0.000179174 8.74334e-07 0.00894573 8.14348e-06 8.14348e-06 1210.69 113 1 
0.000145015 0.000189381 8.21095e-05 0.00946207 -2.84865e-06 -2.84865e-06 1216.82 114 1 
0.000171605 0.000184991 8.65803e-05 0.00924808 5.71955e-06 5.71955e-06 1200.97 115 1 
0.00018834 0.000180725 1.20489e-05 0.0090517 -6.64349e-06 -6.64349e-06 1194.72 116 1 
0.00020958 0.000170495 1.0409e-05 0.0085274 1.67626e-06 1.67626e-06 1207.31 117 1 
0.000246011 0.000186668 9.52805e-08 0.00933143 -5.03238e-06 -5.03238e-06 1209.89 118 1 
0.000273363 0.000182867 1.35966e-05 0.00913936 -8.2168e-06 -8.2168e-06 1197.37 119 1 
0.000271734 0.000177358 3.46165e-06 0.00885195 1.47907e-06 1.47907e-06 1212.09 120 1 
0.000356155 0.000202827 8.91187e-05 0.0101526 1.1027e-05 1.1027e-05 1188.9 121 1 
0.000369911 0.000203259 9.63569e-06 0.0101538 -1.06849e-05 -1.06849e-05 1201.11 122 1 
4.26439e-05 0.000204902 3.54711e-06 0.0102449 3.50757e-06 3.50757e-06 1174.17 123 1 
7.4817e-05 0.000211323 8.35252e-07 0.0105667 -7.48281e-06 -7.48281e-06 1193.2 124 1 
0.000103847 0.000212769 1.33087e-05 0.0106263 6.22819e-06 6.22819e-06 1195.58 125 1 
0.000106315 0.000206532 1.20358e-05 0.0103203 -2.92815e-06 -2.92815e-06 1196.47 126 1 
0.000153223 0.000214139 8.93288e-05 0.0107164 -5.29834e-06 -5.29834e-06 1209.19 127 1 
0.000145991 0.000190346 8.96007e-05 0.00950396 2.8251e-06 2.8251e-06 1224.12 128 1 
0.000185443 0.00019998 1.58432e-05 0.00998621 1.14628e-05 1.14628e-05 1171.44 129 1 
0.000210173 0.000209363 4.64019e-06 0.0104781 -6.4794e-06 -6.4794e-06 1188.79 130 1 
0.000241913 0.000207557 8.86617e-05 0.0103715 -7.73969e-06 -7.73969e-06 1196.41 131 1 
0.000252776 0.000202316 8.37453e-05 0.0101263 -6.76645e-06 -6.76645e-06 1220.9 132 1 
0.000287273 0.000207648 3.77184e-06 0.010391 -1.347e-05 -1.347e-05 1189.07 133 1 
0.000328034 0.000220185 3.65784e-06 0.010997 -4.56399e-06 -4.56399e-06 1185.58 134 1 
0.000340029 0.00020261 7.94448e-05 0.0101294 -8.05815e-06 -8.05815e-06 1185.59 135 1 
4.47499e-05 0.000233468 2.81049e-06 0.0116742 -7.56201e-07 -7.56201e-07 1179.51 136 1 
5.54821e-05 0.000225827 1.33651e-05 0.0112865 5.96194e-06 5.96194e-06 1168.35 137 1 
8.94271e-05 0.000226308 1.59392e-06 0.011324 7.55553e-06 7.55553e-06 1216.31 138 1 
0.000122155 0.000238789 9.01412e-05 0.0119344 2.59362e-06 2.59362e-06 1204.36 139 1 
0.000148635 0.000229784 7.76037e-06 0.011494 1.01608e-05 1.01608e-05 1192.82 140 1 
0.000152867 0.000218896 8.35145e-05 0.0109378 2.85161e-06 2.85161e-06 1203.78 141 1 
0.000179625 0.000230165 4.83508e-06 0.0115076 3.19868e-06 3.19868e-06 1177.12 142 1 
0.000212006 0.000230396 7.39443e-08 0.0115232 -2.56106e-06 -2.56106e-06 1208.64 143 1 
0.000211597 0.00022266 6.22843e-06 0.0111298 -1.23896e-05 -1.23896e-05 1194.19 144 1 
0.000244602 0.000225306 8.6347e-05 0.0112758 -6.25033e-06 -6.25033e-06 1183.36 145 1 
0.000274852 0.000227799 2.60656e-06 0.0113981 -5.36731e-06 -5.36731e-06 1206 146 1 
0.000295305 0.000226684 7.11632e-06 0.0113375 4.45621e-07 4.45621e-07 1204.15 147 1 
0.000333612 0.000225425 6.18004e-06 0.0112718 -4.23652e-06 -4.23652e-06 1169.56 148 1 
0.00033852 0.000215006 8.6008e-05 0.0107514 9.22652e-06 9.22652e-06 1183.22 149 1 
0.000373111 0.000229763 8.83449e-05 0.0114976 -6.25658e-06 -6.25658e-06 1175.18 150 1 
7.95526e-05 0.000258996 7.76485e-06 0.0129511 -7.29107e-06 -7.29107e-06 1174.33 151 1 
0.000101148 0.000256956 4.79753e-06 0.012849 -7.9266e-07 -7.9266e-07 1196 152 1 
0.000131956 0.000254163 8.12907e-05 0.0127065 8.83255e-07 8.83255e-07 1181.22 153 1 
0.0001355 0.000251381 8.94828e-05 0.0125636 1.33302e-06 1.33302e-06 1189.04 154 1 
0.000166627 0.000248522 8.87242e-05 0.0124355 1.92154e-06 1.92154e-06 1189.04 155 1 
0.000202822 0.000257138 8.29691e-06 0.0128641 -7.08548e-06 -7.08548e-06 1186.17 156 1 
0.000238272 0.000262771 8.42959e-05 0.0131286 -5.33132e-06 -5.33132e-06 1186.41 157 1 
0.00025671 0.000266452 1.47388e-06 0.013322 -1.07258e-05 -1.07258e-05 1197.1 158 1 
0.000263063 0.000246372 7.79097e-06 0.0123377 -8.37698e-06 -8.37698e-06 1209.13 159 1 
0.000290642 0.000247165 7.6493e-05 0.0123661 -1.89723e-07 -1.89723e-07 1206.55 160 1 
0.000332583 0.000263329 3.2203e-06 0.0131559 3.85063e-06 3.85063e-06 1175.46 161 1 
0.000363939 0.000265396 8.47526e-05 0.0132747 1.94427e-06 1.94427e-06 1219.93 162 1 
1.57184e-05 0.000256222 6.50351e-06 0.0128182 -3.7707e-06 -3.7707e-06 1212.2 163 1 
2.66724e-05 0.000253174 7.34472e-06 0.0126551 4.37637e-06 4.37637e-06 1216.87 164 1 
5.44871e-05 0.000248059 4.00504e-06 0.0123905 -7.77649e-06 -7.77649e-06 1180.46 165 1 
0.00013148 0.000286491 7.81185e-05 0.0143253 -7.35286e-06 -7.35286e-06 1184.19 166 1 
0.000140915 0.000273799 2.93885e-06 0.0136772 2.30877e-07 2.30877e-07 1175.45 167 1 
0.00017498 0.000278905 3.91823e-06 0.0139471 -5.08894e-06 -5.08894e-06 1211.01 168 1 
0.000177408 0.000266063 6.02717e-06 0.0133048 -9.98344e-07 -9.98344e-07 1209.84 169 1 
0.000214153 0.00028173 7.86001e-06 0.014081 6.66506e-06 6.66506e-06 1176.8 170 1 
0.000238854 0.000273258 5.91244e-06 0.0136649 5.8962e-06 5.8962e-06 1197.98 171 1 
0.000253426 0.000266471 8.33304e-05 0.0133229 -1.08557e-06 -1.08557e-06 1196.82 172 1 
0.000288449 0.000278225 1.02117e-05 0.0139078 5.90929e-06 5.90929e-06 1210.87 173 1 
0.000328242 0.000284949 8.84303e-05 0.0142501 -1.12294e-05 -1.12294e-05 1211.12 174 1 
0.000340716 0.000284301 3.34235e-06 0.0142177 -1.39603e-06 -1.39603e-06 1203.18 175 1 
0.000374588 0.000275785 1.6584e-05 0.0137965 1.29597e-06 1.29597e-06 1193.88 176 1 
2.43606e-05 0.000273981 8.88944e-05 0.0136986 -5.74289e-06 -5.74289e-06 1204.03 177 1 
5.51553e-05 0.000290048 5.76545e-07 0.0145122 7.9794e-06 7.9794e-06 1167.29 178 1 
8.62273e-05 0.000288878 2.70268e-06 0.0144336 6.57499e-06 6.57499e-06 1176.35 179 1 
9.07475e-05 0.000275763 8.6333e-05 0.0137967 -9.74203e-06 -9.74203e-06 1173.92 180 1 
0.000176778 0.000310436 4.14092e-06 0.0155154 6.6003e-06 6.6003e-06 1187.79 181 1 
0.000164808 0.000285008 8.96329e-05 0.014241 -1.7256e-07 -1.7256e-07 1203.47 182 1 
0.000217318 0.000307744 9.58214e-06 0.0153811 -1.96142e-06 -1.96142e-06 1178.94 183 1 
0.000230506 0.000302935 3.49327e-06 0.0151443 1.2085e-05 1.2085e-05 1187.95 184 1 
0.000259121 0.000298576 1.81384e-05 0.0149402 -6.13953e-06 -6.13953e-06 1128.47 185 1 
0.00026635 0.000297652 8.45311e-05 0.0148761 3.6489e-06 3.6489e-06 1161.04 186 1 
0.000292584 0.000297934 8.76772e-05 0.0149088 -1.70476e-06 -1.70476e-06 1186.14 187 1 
0.000325349 0.000296225 8.01206e-05 0.0148066 2.4854e-06 2.4854e-06 1186.24 188 1 
0.000349885 0.000303687 1.67133e-05 0.0151883 -7.20861e-06 -7.20861e-06 1147.85 189 1 
1.84233e-05 0.000298393 8.72292e-05 0.0149249 -3.84906e-06 -3.84906e-06 1192.64 190 1 
5.41652e-05 0.000309929 2.74577e-06 0.0155136 -1.05211e-05 -1.05211e-05 1201.36 191 1 
7.66497e-05 0.000307679 8.61405e-05 0.0153852 -1.67137e-07 -1.67137e-07 1197.44 192 1 
0.000108465 0.000317215 8.44433e-06 0.0158435 8.18233e-06 8.18233e-06 1185.02 193 1 
0.000108435 0.000298553 1.37371e-06 0.0149307 -1.14791e-05 -1.14791e-05 1189.23 194 1 
0.000153932 0.000314329 1.50376e-06 0.0157168 1.71147e-05 1.71147e-05 1173.72 195 1 
0.000205809 0.000331223 8.57881e-05 0.0165606 -1.63776e-07 -1.63776e-07 1190.98 196 1 
0.00023973 0.000328792 1.50891e-05 0.0164298 -5.96195e-07 -5.96195e-07 1146.95 197 1 
0.000252641 0.000323537 8.71853e-05 0.0161727 -9.20509e-06 -9.20509e-06 1143.1 198 1 
0.000269383 0.000324717 1.38983e-06 0.0162387 -5.62185e-06 -5.62185e-06 1155.1 199 1 
0.000295825 0.00032497 3.15258e-06 0.0162393 3.16386e-06 3.16386e-06 1157.21 200 1 
0.000326905 0.000326319 6.14273e-06 0.0163213 -4.69631e-06 -4.69631e-06 1147.49 201 1 
0.000361194 0.000333541 8.9316e-05 0.0166734 2.52465e-06 2.52465e-06 1172.55 202 1 
0.000375283 0.000327307 8.31806e-05 0.0163678 3.367e-07 3.367e-07 1193.49 203 1 
3.2405e-05 0.000331432 4.41687e-06 0.0165674 7.61935e-06 7.61935e-06 1203.44 204 1 
5.19526e-05 0.000324644 2.13319e-08 0.0162289 -6.62355e-06 -6.62355e-06 1189.5 205 1 
8.6479e-05 0.000322911 7.28172e-06 0.0161464 -5.82511e-06 -5.82511e-06 1175.64 206 1 
0.000104184 0.000324733 1.15769e-05 0.0162315 -4.99594e-06 -4.99594e-06 1174.54 207 1 
0.000137426 0.000333336 1.46501e-05 0.0166519 5.99851e-07 5.99851e-07 1183.92 208 1 
0.000160373 0.000328598 8.91417e-05 0.016432 -4.64137e-06 -4.64137e-06 1191.73 209 1 
0.000185974 0.000329373 1.44469e-06 0.016468 -1.36895e-06 -1.36895e-06 1199.8 210 1 
0.000253748 0.000348334 1.0756e-05 0.0174291 -9.50076e-06 -9.50076e-06 1186.63 211 1 
0.000270262 0.000350291 5.06277e-07 0.0175122 4.3101e-06 4.3101e-06 1192.95 212 1 
0.000294779 0.000357782 1.03354e-06 0.0178742 8.73191e-06 8.73191e-06 1186.12 213 1 
0.000313558 0.00035343 1.55945e-06 0.0176739 -3.55433e-06 -3.55433e-06 1160.19 214 1 
0.000334514 0.000347483 8.91643e-05 0.0173788 -6.08982e-06 -6.08982e-06 1153.37 215 1 
0.000362844 0.000349296 8.73092e-07 0.0174529 1.13768e-06 1.13768e-06 1174.87 216 1 
2.83775e-05 0.000358035 4.61653e-06 0.0179103 1.00924e-05 1.00924e-05 1180.62 217 1 
5.71392e-05 0.000349889 3.05741e-06 0.0175009 3.5169e-06 3.5169e-06 1167.78 218 1 
7.85969e-05 0.000348897 8.94772e-07 0.0174426 7.01607e-06 7.01607e-06 1174.97 219 1 
9.3355e-05 0.000356373 5.27367e-06 0.0178115 -2.45578e-06 -2.45578e-06 1181.25 220 1 
0.000123703 0.000350114 7.00095e-06 0.0175164 -6.73161e-06 -6.73161e-06 1196.71 221 1 
0.000158792 0.000346796 8.38432e-05 0.0173465 4.72808e-06 4.72808e-06 1175.45 222 1 
0.000183781 0.000352743 4.75709e-06 0.0176376 -1.35413e-05 -1.35413e-05 1171.07 223 1 
0.000202683 0.000355745 1.00377e-05 0.0177948 -5.34517e-06 -5.34517e-06 1164.32 224 1 
0.000213402 0.000343385 4.04115e-06 0.0171646 -8.5396e-07 -8.5396e-07 1170.08 225 1 
0.000280997 0.000365211 1.0224e-06 0.0182516 1.54635e-05 1.54635e-05 1198.08 226 1 
0.000332749 0.000383787 1.21479e-05 0.0191962 1.56869e-06 1.56869e-06 1207.4 227 1 
0.000337685 0.00037854 4.73646e-06 0.0189127 -5.10882e-06 -5.10882e-06 1204.42 228 1 
0.00036119 0.000375781 8.26067e-05 0.0187934 -9.6367e-06 -9.6367e-06 1177.4 229 1 
2.84793e-05 0.00037721 1.87721e-05 0.018863 1.59619e-05 1.59619e-05 1179.76 230 1 
5.28451e-05 0.000378366 7.72929e-06 0.0188999 3.3721e-06 3.3721e-06 1184.23 231 1 
5.88796e-05 0.000373528 8.83855e-05 0.0186781 -1.07718e-05 -1.07718e-05 1196.83 232 1 
8.96532e-05 0.000372686 1.75323e-05 0.0186346 2.20949e-06 2.20949e-06 1183.74 233 1 
0.000127523 0.00037876 5.54953e-06 0.0189389 -7.39534e-06 -7.39534e-06 1176.2 234 1 
0.000148343 0.000377313 7.24069e-06 0.0188724 -1.41585e-05 -1.41585e-05 1169.92 235 1 
0.000179472 0.000379318 3.44991e-06 0.018969 2.88568e-06 2.88568e-06 1178.85 236 1 
0.000195995 0.000381496 8.75089e-05 0.0190906 4.50841e-06 4.50841e-06 1191.63 237 1 
0.000227226 0.000380449 8.27744e-05 0.0190244 3.78746e-06 3.78746e-06 1159.9 238 1 
0.000231898 0.000369325 9.1143e-06 0.0184739 -5.18735e-06 -5.18735e-06 1163.33 239 1 
0.000278917 0.000377458 5.95735e-06 0.0188675 7.46108e-06 7.46108e-06 1183.65 240 1 
0.00034231 0.000410297 7.86175e-05 0.0205102 3.32995e-06 3.32995e-06 1176.6 241 1 
0.000341723 0.000396552 8.50392e-05 0.0198349 -7.5221e-07 -7.5221e-07 1182.9 242 1 
0.000379336 0.000400716 1.30843e-06 0.0200274 1.22542e-05 1.22542e-05 1179.11 243 1 
5.39722e-05 0.000402106 9.92573e-06 0.0201046 2.52752e-05 2.52752e-05 1165.3 244 1 
7.16305e-05 0.000408294 7.48121e-05 0.0204216 -1.17561e-05 -1.17561e-05 1153.34 245 1 
8.40285e-05 0.000403262 8.77473e-05 0.0201606 3.37114e-06 3.37114e-06 1146.24 246 1 
0.000110671 0.00039655 8.99426e-05 0.0198246 1.49465e-05 1.49465e-05 1158.11 247 1 
0.00015346 0.000407944 8.83783e-05 0.0203947 -6.5927e-06 -6.5927e-06 1174.88 248 1 
0.000164172 0.000396851 2.47034e-06 0.0198472 -3.25289e-06 -3.25289e-06 1181.09 249 1 
0.000183408 0.000398815 8.39677e-05 0.0199266 1.82246e-05 1.82246e-05 1180.43 250 1 
0.000196723 0.000400316 4.49547e-06 0.0200139 -1.51457e-06 -1.51457e-06 1185.09 251 1 
0.000243635 0.000400242 2.07679e-06 0.0200063 7.46062e-06 7.46062e-06 1177.67 252 1 
0.000270684 0.000404087 1.25445e-05 0.0202047 -4.49364e-06 -4.49364e-06 1192.71 253 1 
0.000294153 0.00040742 9.23453e-06 0.0203635 -1.12235e-07 -1.12235e-07 1163.37 254 1 
0.000319539 0.000409015 3.00396e-06 0.0204354 1.22894e-06 1.22894e-06 1180.7 255 1 
0.000381897 0.000424756 1.06869e-05 0.0212278 4.12324e-06 4.12324e-06 1195.12 256 1 
3.14363e-05 0.000415213 4.06969e-06 0.0207628 -5.20691e-06 -5.20691e-06 1193.62 257 1 
5.24824e-05 0.000418134 3.43721e-06 0.0209217 8.06269e-06 8.06269e-06 1170.2 258 1 
0.000104312 0.000435358 8.93719e-05 0.0217661 8.7241e-06 8.7241e-06 1187.09 259 1 
0.000106646 0.000425978 8.92701e-05 0.0212979 -1.11423e-05 -1.11423e-05 1177.67 260 1 
0.000136592 0.000424398 8.77871e-05 0.0212274 -4.12343e-06 -4.12343e-06 1170.21 261 1 
0.000160682 0.000423842 1.17906e-05 0.0211901 1.34329e-05 1.34329e-05 1186.26 262 1 
0.000187458 0.000421599 5.66307e-06 0.0210721 -6.10585e-06 -6.10585e-06 1185.04 263 1 
0.000212816 0.000428499 1.12994e-05 0.0214237 8.13527e-06 8.13527e-06 1191.34 264 1 
0.000243457 0.000439678 8.66384e-05 0.0219765 5.62726e-06 5.62726e-06 1186.9 265 1 
0.000238699 0.000416555 8.70479e-05 0.0208307 -1.84186e-08 -1.84186e-08 1182.6 266 1 
0.000278637 0.000424216 2.09429e-06 0.0212153 1.44019e-05 1.44019e-05 1166.25 267 1 
0.000310443 0.000430858 4.55404e-07 0.0215408 7.62507e-07 7.62507e-07 1189.58 268 1 
0.0003317 0.000432884 1.97649e-06 0.0216448 -8.07771e-06 -8.07771e-06 1193.37 269 1 
0.000359342 0.00042474 8.7444e-05 0.0212369 3.77115e-06 3.77115e-06 1171.81 270 1 
5.46226e-05 0.000451845 8.79756e-06 0.0225771 -2.16982e-06 -2.16982e-06 1171.66 271 1 
7.68612e-05 0.000446396 5.00276e-06 0.0223238 -7.31122e-06 -7.31122e-06 1167.54 272 1 
0.000108207 0.000456702 5.93251e-06 0.0228503 -6.06393e-06 -6.06393e-06 1194.07 273 1 
0.000112011 0.000441439 2.36881e-06 0.0220562 -5.1422e-08 -5.1422e-08 1195.1 274 1 
0.000163188 0.000455306 1.49058e-05 0.0227605 3.75857e-06 3.75857e-06 1178.55 275 1 
0.000167564 0.000443259 1.72679e-06 0.0221746 -1.11253e-06 -1.11253e-06 1173.63 276 1 
0.0002113 0.000449641 7.70987e-06 0.0224733 8.57092e-06 8.57092e-06 1199.03 277 1 
0.000237083 0.000456652 1.64624e-06 0.0228218 3.62044e-06 3.62044e-06 1168.28 278 1 
0.000263698 0.000462988 7.58224e-05 0.0231453 1.17513e-06 1.17513e-06 1156.66 279 1 
0.000274424 0.000447369 7.94139e-06 0.0223718 -4.0106e-06 -4.0106e-06 1167.9 280 1 
0.000313254 0.000451024 8.12644e-05 0.0225437 -2.69632e-06 -2.69632e-06 1187.78 281 1 
0.000303299 0.000439409 3.05249e-06 0.0219861 -1.65872e-05 -1.65872e-05 1190.78 282 1 
0.000333293 0.000436046 4.00829e-06 0.0218068 3.60938e-06 3.60938e-06 1191.53 283 1 
0.000373488 0.000443289 1.29641e-05 0.0221571 5.43782e-06 5.43782e-06 1208.26 284 1 
0.000378891 0.000449953 9.18922e-06 0.0225039 -6.12967e-06 -6.12967e-06 1213.37 285 1 
9.11222e-05 1.09583e-05 4.00289e-05 0.000551117 -6.02033e-06 -6.02033e-06 1245.87 286 1 
0.000338454 0.000901107 2.78243e-05 0.0450461 9.01602e-06 9.01602e-06 1245.89 287 1 
8.11953e-05 0.000884626 2.63279e-05 0.0442285 2.25222e-07 2.25222e-07 1242.63 288 1 
9.34843e-05 0.000879632 3.19871e-05 0.0439671 7.81413e-07 7.81413e-07 1253.55 289 1 
0.000181684 1.1393e-05 3.48306e-05 0.00057342 -1.24654e-05 -1.24654e-05 1161.02 290 1 
0.000235228 8.82965e-06 2.52079e-05 0.00044416 -5.91919e-06 -5.91919e-06 1185.9 291 1 
0.00022988 2.05634e-05 2.83843e-05 0.00102971 1.11896e-05 1.11896e-05 1167.37 292 1 
0.000194818 0.00089314 2.64837e-05 0.0446626 -1.14388e-06 -1.14388e-06 1186.72 293 1 
0.000138271 0.000898641 2.93094e-05 0.0449326 -2.80124e-06 -2.80124e-06 1257.35 294 1 
0.000244244 0.000890646 2.43662e-05 0.0445251 -3.19389e-06 -3.19389e-06 1156.53 295 1 
0.000338731 1.28327e-05 2.86895e-05 0.000651944 -5.02018e-06 -5.02018e-06 1178.13 296 1 
8.7268e-06 2.19725e-05 2.86753e-05 0.0010916 3.71705e-06 3.71705e-06 1165.6 297 1 
0.000310555 0.000886762 3.21096e-05 0.0443348 1.8646e-06 1.8646e-06 1244.65 298 1 
0.000344847 0.000892244 2.85963e-05 0.0446165 -8.62992e-06 -8.62992e-06 1221.77 299 1 
0.000355216 0.00089172 2.7337e-05 0.0445885 2.92721e-06 2.92721e-06 1203.14 300 1 
8.02423e-05 2.7973e-05 3.14221e-05 0.00138942 9.69528e-06 9.69528e-06 1260.01 301 1 
0.000101271 3.4327e-05 2.55819e-05 0.00170763 8.50697e-06 8.50697e-06 1242.69 302 1 
0.000133732 3.04553e-05 3.00706e-05 0.00152073 3.26127e-06 3.26127e-06 1181.94 303 1 
0.00016019 3.5992e-05 3.17298e-05 0.0017961 3.68158e-06 3.68158e-06 1193.39 304 1 
0.00018536 3.2987e-05 1.75359e-05 0.00163824 4.14514e-06 4.14514e-06 1186.79 305 1 
0.000204884 3.01053e-05 2.15532e-05 0.00150587 -3.56939e-06 -3.56939e-06 1178.14 306 1 
0.00023281 4.22586e-05 3.39468e-05 0.00212969 4.24559e-06 4.24559e-06 1174.49 307 1 
0.000250467 3.84719e-05 1.94943e-05 0.00191894 5.0171e-06 5.0171e-06 1163.27 308 1 
0.000274534 3.37669e-05 3.00022e-05 0.00169004 4.22463e-07 4.22463e-07 1203.69 309 1 
0.000301575 2.46506e-05 2.21523e-05 0.00123922 1.6316e-06 1.6316e-06 1227.23 310 1 
0.00031429 3.67282e-05 3.36688e-05 0.00182813 9.25638e-06 9.25638e-06 1220.07 311 1 
0.000347942 4.1948e-05 3.65176e-05 0.00208986 2.86709e-06 2.86709e-06 1209.14 312 1 
1.35496e-05 4.39408e-05 2.51559e-05 0.00219015 9.44698e-06 9.44698e-06 1212.04 313 1 
5.50039e-05 3.48111e-05 2.33778e-05 0.001739 1.02274e-06 1.02274e-06 1214.44 314 1 
6.76779e-05 4.63471e-05 2.2762e-05 0.00230649 1.11067e-05 1.11067e-05 1214.51 315 1 
9.94885e-05 4.90907e-05 3.50098e-05 0.00244759 1.54675e-05 1.54675e-05 1211.97 316 1 
0.000127159 5.59846e-05 3.37417e-05 0.00278859 1.07135e-05 1.07135e-05 1206.22 317 1 
0.000155782 5.1535e-05 3.01604e-05 0.00257461 -1.39794e-06 -1.39794e-06 1190.51 318 1 
0.000185645 6.27603e-05 2.41874e-05 0.00314678 7.84751e-07 7.84751e-07 1189.18 319 1 
0.000205523 6.36438e-05 2.37639e-05 0.00316283 6.3514e-06 6.3514e-06 1201.06 320 1 
0.000215582 5.09321e-05 3.53228e-05 0.00254519 9.25821e-07 9.25821e-07 1204.64 321 1 
0.000269572 6.89061e-05 2.84907e-05 0.00344934 6.57472e-06 6.57472e-06 1211.62 322 1 
0.000272429 5.82276e-05 2.97779e-05 0.0029178 -2.75658e-06 -2.75658e-06 1205.06 323 1 
0.000304672 5.56217e-05 2.68412e-05 0.00277587 -4.77525e-06 -4.77525e-06 1214.63 324 1 
0.000333775 5.13489e-05 2.52363e-05 0.00255643 8.28076e-06 8.28076e-06 1217.49 325 1 
0.000358815 6.63936e-05 2.20516e-05 0.00332182 -1.01802e-05 -1.01802e-05 1208.02 326 1 
1.16872e-05 5.97838e-05 3.27038e-05 0.00299569 -2.23403e-06 -2.23403e-06 1216.39 327 1 
3.48286e-05 5.88265e-05 3.09998e-05 0.0029462 1.50052e-06 1.50052e-06 1220.46 328 1 
5.84503e-05 6.34158e-05 1.84579e-05 0.00316789 7.64369e-06 7.64369e-06 1205.69 329 1 
9.0723e-05 6.28474e-05 2.69237e-05 0.003145 1.40468e-06 1.40468e-06 1194.91 330 1 
0.000146847 7.34362e-05 3.39226e-05 0.00367311 1.20708e-06 1.20708e-06 1185.81 331 1 
0.000185624 9.41865e-05 2.95194e-05 0.00470685 -4.04366e-07 -4.04366e-07 1216.2 332 1 
0.000207902 8.58465e-05 1.79261e-05 0.00431256 -1.09667e-05 -1.09667e-05 1201.93 333 1 
0.000207374 8.02281e-05 3.60611e-05 0.00400525 8.92516e-06 8.92516e-06 1214.31 334 1 
0.000248358 8.0527e-05 2.66293e-05 0.00402562 -1.1422e-05 -1.1422e-05 1192.85 335 1 
0.000270281 8.65412e-05 2.55966e-05 0.00433025 5.10337e-08 5.10337e-08 1203.11 336 1 
0.000290332 8.09042e-05 1.94653e-05 0.00403292 -1.16652e-06 -1.16652e-06 1179.95 337 1 
0.000316344 8.26378e-05 1.96148e-05 0.0041317 -2.20651e-06 -2.20651e-06 1179.43 338 1 
0.000335943 8.66245e-05 3.36657e-05 0.00432539 -3.84962e-07 -3.84962e-07 1200.07 339 1 
1.68187e-05 9.12154e-05 3.68447e-05 0.00455686 -4.23579e-06 -4.23579e-06 1168.71 340 1 
2.54892e-05 8.9172e-05 1.06154e-05 0.00445738 1.74642e-06 1.74642e-06 1204.62 341 1 
5.10168e-05 8.27728e-05 3.22193e-05 0.00414318 -2.68016e-06 -2.68016e-06 1207.19 342 1 
7.90386e-05 8.48227e-05 2.88798e-05 0.00424844 -1.97624e-06 -1.97624e-06 1198.02 343 1 
9.83452e-05 8.82532e-05 2.93796e-05 0.00441891 -8.11965e-06 -8.11965e-06 1204.51 344 1 
0.000119744 8.40565e-05 2.20718e-05 0.00419872 7.04035e-06 7.04035e-06 1191.43 345 1 
0.000170219 9.31389e-05 3.87902e-05 0.00465463 5.98086e-06 5.98086e-06 1186.17 346 1 
0.000215314 0.000108619 3.0419e-05 0.00543124 -8.84187e-07 -8.84187e-07 1186.1 347 1 
0.000236133 0.000102963 2.50405e-05 0.00514741 -2.88014e-06 -2.88014e-06 1202.83 348 1 
0.000258067 0.00011268 3.14098e-05 0.00564716 -7.7927e-06 -7.7927e-06 1220.57 349 1 