ITEM: TIMESTEP
1100
ITEM: NUMBER OF ATOMS
2220
ITEM: BOX BOUNDS xy xz yz pp pp pp
-0.000102358 0.0003606 -0.000102358
0 0.0009015 0
0 9.015e-05 0
ITEM: ATOMS x y z vx vy vy c_rho_peratom id type 
3.68482e-05 1.01612e-05 8.79426e-05 0.00210674 -0.000838395 -0.000838395 1197.42 1 1 
0.000148632 0.000890185 8.51731e-05 0.0456978 0.000805417 0.000805417 1226.49 2 1 
8.38827e-05 1.10149e-05 2.95444e-06 0.00145203 -0.000362492 -0.000362492 1184.38 3 1 
0.000189587 0.000897479 8.8984e-05 0.0468952 0.000434932 0.000434932 1283.55 4 1 
7.14649e-05 0.000900458 8.69232e-05 0.0453701 0.000320052 0.000320052 1234.48 5 1 
0.000173348 9.05786e-06 8.60155e-05 8.19655e-05 -0.000591206 -0.000591206 1229.13 6 1 
0.00024553 0.000897467 1.27526e-05 0.0443247 0.000488311 0.000488311 1227.39 7 1 
0.000211479 8.641e-06 8.80368e-05 3.50199e-05 0.000576055 0.000576055 1256.07 8 1 
0.000246551 5.60537e-06 1.00471e-07 -0.000848363 0.000154727 0.000154727 1205.43 9 1 
0.000253731 1.88066e-05 8.60495e-05 0.0012508 0.000375686 0.000375686 1210.68 10 1 
0.000278702 1.36064e-05 3.58167e-06 0.00132835 0.000542581 0.000542581 1227.9 11 1 
0.000313659 3.69775e-06 7.41508e-06 -0.0012967 -0.000875155 -0.000875155 1249.2 12 1 
3.96513e-05 0.000898477 2.34942e-06 0.0439109 0.00124401 0.00124401 1271.09 13 1 
0.000357041 8.46396e-06 4.65067e-06 0.000488723 -0.00161028 -0.00161028 1231.17 14 1 
0.000135412 1.27702e-07 1.17452e-05 -0.00096158 0.000716153 0.000716153 1298.1 15 1 
3.36996e-05 3.80763e-05 8.65097e-05 0.00192217 0.000969041 0.000969041 1224.62 16 1 
6.20056e-05 3.80141e-05 6.28269e-06 0.00236402 -0.00132859 -0.00132859 1208.2 17 1 
8.25991e-05 3.49192e-05 2.47621e-06 0.000911085 -3.91879e-05 -3.91879e-05 1196.96 18 1 
0.000103016 4.38562e-05 8.32068e-05 0.00146437 0.000384455 0.000384455 1215.65 19 1 
0.000132387 3.91038e-05 7.18184e-06 0.00266304 0.0012455 0.0012455 1220.69 20 1 
0.000156344 4.02875e-05 8.97221e-05 0.00177066 0.000419291 0.000419291 1228.5 21 1 
0.000172168 3.23004e-05 3.34339e-06 0.000740371 -0.000344185 -0.000344185 1229.35 22 1 
0.000202957 3.22132e-05 2.97508e-06 0.000786679 0.00101443 0.00101443 1256.42 23 1 
0.000231322 4.04399e-05 1.50874e-05 0.00274512 0.000431906 0.000431906 1238.74 24 1 
0.00024867 4.33065e-05 2.91809e-07 0.00143622 7.80564e-05 7.80564e-05 1234.15 25 1 
0.00028315 3.30096e-05 7.68563e-06 0.00292372 2.86631e-05 2.86631e-05 1232.27 26 1 
0.000299879 3.81221e-05 1.61641e-05 0.00119747 -0.000527287 -0.000527287 1237.06 27 1 
0.000325235 3.51023e-05 8.80321e-05 0.000928627 -0.000758515 -0.000758515 1207.15 28 1 
0.000351919 4.39762e-05 6.65502e-06 0.00199778 0.000444426 0.000444426 1240.84 29 1 
8.77645e-06 3.70362e-05 8.71682e-05 0.00258469 -0.000649398 -0.000649398 1244.71 30 1 
4.18966e-05 6.13852e-05 8.75791e-05 0.00217548 -0.000690251 -0.000690251 1217.04 31 1 
6.15225e-05 4.72765e-05 2.94958e-06 0.00216214 -8.46619e-05 -8.46619e-05 1228.18 32 1 
8.09466e-05 6.1092e-05 2.03377e-06 0.00389251 0.000119466 0.000119466 1231.75 33 1 
0.000108469 4.88748e-05 8.95576e-05 0.0022267 -0.000550277 -0.000550277 1204.5 34 1 
0.000142805 6.15556e-05 8.93342e-05 0.00538297 0.00124151 0.00124151 1230.27 35 1 
0.00016315 5.91654e-05 9.28562e-06 0.00313137 -0.00170859 -0.00170859 1235.74 36 1 
0.000182437 5.5846e-05 3.33947e-06 0.00248343 0.00108362 0.00108362 1238.08 37 1 
0.00020398 5.00787e-05 8.91392e-05 0.0022839 0.000431581 0.000431581 1257.52 38 1 
0.000234684 5.51949e-05 3.11225e-06 0.0038036 3.91264e-05 3.91264e-05 1261.62 39 1 
0.000260782 5.7924e-05 8.33922e-06 0.00281036 -0.00119484 -0.00119484 1215.47 40 1 
0.000280176 5.64717e-05 6.88947e-06 0.00467416 0.00118123 0.00118123 1235.12 41 1 
0.000302015 5.47808e-05 8.9953e-05 0.00202349 -0.000526553 -0.000526553 1238.23 42 1 
0.000332241 5.00474e-05 2.77043e-06 0.00220589 -0.00212054 -0.00212054 1208.43 43 1 
0.000349255 4.92062e-05 1.59298e-07 0.00225911 0.00017829 0.00017829 1234.01 44 1 
1.78409e-05 5.42976e-05 4.85266e-06 0.00479172 -0.00041151 -0.00041151 1229.37 45 1 
5.94494e-05 8.58541e-05 6.02636e-06 0.00431093 0.000812759 0.000812759 1232.43 46 1 
7.27992e-05 7.97945e-05 8.65287e-05 0.00498759 -0.00130806 -0.00130806 1234.56 47 1 
9.39038e-05 8.28955e-05 9.01482e-05 0.00441959 -5.40063e-05 -5.40063e-05 1209.08 48 1 
0.000129014 8.2743e-05 8.93483e-05 0.00202395 -0.000567871 -0.000567871 1190.1 49 1 
0.000147842 8.49609e-05 4.94474e-06 0.00448978 2.52944e-05 2.52944e-05 1188.87 50 1 
0.00017326 8.23902e-05 8.45465e-05 0.00468815 0.00126601 0.00126601 1209.37 51 1 
0.000210259 8.76695e-05 3.29774e-06 0.00294857 -0.000968751 -0.000968751 1217.36 52 1 
0.000226986 8.2538e-05 7.31208e-06 0.0055595 -2.55709e-05 -2.55709e-05 1237.04 53 1 
0.000253348 7.71033e-05 3.18335e-06 0.00360016 0.000281507 0.000281507 1214.93 54 1 
0.000259917 9.03981e-05 2.76011e-06 0.0051026 -0.00138882 -0.00138882 1199.22 55 1 
0.000295931 8.41365e-05 8.74293e-05 0.00464319 -0.000440516 -0.000440516 1201.2 56 1 
0.000325869 7.60444e-05 3.74195e-06 0.00343793 -2.22656e-05 -2.22656e-05 1185.27 57 1 
0.000349905 8.6687e-05 8.47046e-05 0.00451711 -0.000560968 -0.000560968 1224.75 58 1 
3.8962e-06 8.64795e-05 8.57061e-05 0.00425938 0.0013731 0.0013731 1215.2 59 1 
2.71527e-05 7.99071e-05 6.25346e-06 0.00447449 1.64838e-05 1.64838e-05 1196.72 60 1 
5.73737e-05 0.000107398 5.74546e-06 0.00531827 -0.000892581 -0.000892581 1239.16 61 1 
8.59128e-05 9.8513e-05 8.92052e-05 0.00599984 0.000676142 0.000676142 1223.41 62 1 
0.000114324 0.000111143 4.50445e-07 0.0049948 0.000107769 0.000107769 1213.67 63 1 
0.00013244 0.000103401 5.00504e-06 0.00584923 0.00133419 0.00133419 1207.44 64 1 
0.000171225 0.00010855 1.04321e-05 0.00391683 0.00113379 0.00113379 1204.49 65 1 
0.000186077 0.000109562 7.92267e-06 0.00563791 0.000923799 0.000923799 1198.97 66 1 
0.000207591 0.000100363 8.41176e-05 0.00630155 8.31809e-05 8.31809e-05 1202.88 67 1 
0.000239262 0.000106017 8.31046e-05 0.00462582 0.000978473 0.000978473 1219.99 68 1 
0.000243587 0.000104418 2.03241e-06 0.00525723 -0.00135908 -0.00135908 1201.63 69 1 
0.000277292 9.94938e-05 8.67657e-05 0.00574721 0.000491187 0.000491187 1210.23 70 1 
0.000306632 0.000101212 8.46913e-06 0.00281544 -0.00107634 -0.00107634 1187.9 71 1 
0.000337128 0.000112397 2.29011e-06 0.00609147 0.000870541 0.000870541 1217.24 72 1 
4.06212e-06 0.000104553 2.996e-06 0.00486189 8.46423e-05 8.46423e-05 1212.83 73 1 
2.04979e-05 0.000103403 8.6125e-06 0.00581048 0.00129403 0.00129403 1214.12 74 1 
4.3296e-05 0.000107947 7.25329e-06 0.00700977 0.000313043 0.000313043 1232.62 75 1 
6.77269e-05 0.000120012 5.56859e-06 0.00483777 0.00151167 0.00151167 1209.04 76 1 
0.000102769 0.000126981 8.90517e-05 0.00729933 0.00019035 0.00019035 1199.21 77 1 
0.000126908 0.000131008 4.22496e-06 0.00559384 -0.0011715 -0.0011715 1231.71 78 1 
0.00016011 0.000125608 8.77625e-05 0.00704106 0.00146523 0.00146523 1201.53 79 1 
0.000175448 0.000134602 4.54571e-06 0.00654329 -0.000338564 -0.000338564 1199.04 80 1 
0.000203709 0.000131913 4.63733e-06 0.00589226 0.000182623 0.000182623 1186.38 81 1 
0.000226141 0.000134668 7.09055e-06 0.0085027 -0.00123688 -0.00123688 1202.42 82 1 
0.000246126 0.000132633 7.81101e-06 0.00722499 -0.00139522 -0.00139522 1211.37 83 1 
0.000279893 0.000129397 6.00966e-06 0.00592781 -0.000774427 -0.000774427 1212.55 84 1 
0.000293367 0.000130401 1.08283e-05 0.0063914 0.000402314 0.000402314 1201.32 85 1 
0.000319518 0.000129706 8.60435e-05 0.0059747 0.000741679 0.000741679 1203.13 86 1 
0.000340272 0.000125128 1.18064e-06 0.00607143 -0.000129542 -0.000129542 1206.03 87 1 
1.41786e-05 0.000128929 2.05148e-06 0.00622585 0.000826861 0.000826861 1180.49 88 1 
3.6413e-05 0.000125356 8.34586e-05 0.00596862 0.000810426 0.000810426 1208.66 89 1 
7.74892e-05 0.00013893 8.96073e-05 0.00714553 0.0013048 0.0013048 1192.09 90 1 
9.01481e-05 0.000146244 1.20554e-05 0.00689759 -0.000377875 -0.000377875 1192.82 91 1 
0.000124345 0.000162113 8.99945e-05 0.00823193 -0.000756503 -0.000756503 1193.09 92 1 
0.000135512 0.000150628 1.77179e-06 0.00811599 -0.00144148 -0.00144148 1210.39 93 1 
0.000168657 0.000150246 7.42117e-07 0.00695805 0.000757438 0.000757438 1214.46 94 1 
0.000189392 0.000148783 4.69928e-06 0.00766119 -0.00174677 -0.00174677 1220.85 95 1 
0.000224287 0.000148463 3.37086e-07 0.00763199 -0.000847887 -0.000847887 1210.12 96 1 
0.000239674 0.000159265 4.98571e-06 0.00824729 0.000394526 0.000394526 1197.43 97 1 
0.000262784 0.000148981 8.97284e-05 0.00787554 -0.000759045 -0.000759045 1197.95 98 1 
0.000280747 0.00015206 8.71605e-05 0.00762887 -0.000255672 -0.000255672 1194.45 99 1 
0.000309171 0.000154776 8.07418e-05 0.0089717 -0.000726378 -0.000726378 1214.11 100 1 
0.00033759 0.000146617 4.02399e-06 0.00722813 -5.48883e-06 -5.48883e-06 1209.42 101 1 
-7.51261e-06 0.000151908 8.94365e-05 0.00767382 -0.00126131 -0.00126131 1205.16 102 1 
1.13231e-05 0.000150658 8.63535e-05 0.00929842 -1.70889e-05 -1.70889e-05 1197.63 103 1 
3.92183e-05 0.000151594 8.6295e-05 0.00696091 0.00137236 0.00137236 1229.91 104 1 
7.21947e-05 0.000151718 1.17568e-05 0.00900293 -0.000595101 -0.000595101 1201.9 105 1 
9.42061e-05 0.000178297 6.99265e-06 0.00801873 0.000496451 0.000496451 1169.24 106 1 
0.000130986 0.00017492 8.7544e-05 0.0102394 0.000772628 0.000772628 1177.06 107 1 
0.000163682 0.000174035 3.85137e-06 0.00808236 0.000203892 0.000203892 1204.55 108 1 
0.000170601 0.000168047 8.65394e-05 0.0082063 -0.000411452 -0.000411452 1205.55 109 1 
0.000206257 0.000177646 9.36161e-06 0.00924552 -0.00130985 -0.00130985 1198.07 110 1 
0.00022588 0.000184611 9.8336e-06 0.0104653 -0.00145684 -0.00145684 1184.02 111 1 
0.000254562 0.000181173 3.88467e-06 0.0100729 0.000485906 0.000485906 1187.92 112 1 
0.000273435 0.000182303 2.58804e-06 0.00803768 0.00101432 0.00101432 1208.63 113 1 
0.000289859 0.000183928 7.99014e-05 0.0106242 -0.000444182 -0.000444182 1205.93 114 1 
0.000326301 0.00017117 8.9295e-05 0.00741008 -0.000158288 -0.000158288 1205.35 115 1 
-1.5932e-05 0.000175124 7.70907e-06 0.00903934 -5.5261e-05 -5.5261e-05 1203.92 116 1 
1.4317e-05 0.00016842 1.06965e-05 0.00898738 -0.00184025 -0.00184025 1208.34 117 1 
3.7411e-05 0.000182027 8.38672e-05 0.00803411 0.000908131 0.000908131 1225.98 118 1 
5.92214e-05 0.000181991 5.79659e-06 0.00938546 -0.00111685 -0.00111685 1198.02 119 1 
7.32241e-05 0.000172394 3.63998e-06 0.00828218 -0.000287096 -0.000287096 1184.32 120 1 
0.000124976 0.00020512 2.14819e-07 0.0111488 -0.000230443 -0.000230443 1195.41 121 1 
0.0001381 0.000202368 8.4963e-06 0.00943899 0.00106426 0.00106426 1207.23 122 1 
0.00016923 0.000206482 2.43252e-06 0.0110165 0.000579798 0.000579798 1185 123 1 
0.000197259 0.000203064 8.91992e-05 0.00967295 -0.000548994 -0.000548994 1202.32 124 1 
0.000220532 0.000208064 1.10861e-05 0.00935577 0.000379817 0.000379817 1190.2 125 1 
0.000233992 0.000200486 5.96837e-06 0.00939165 0.00100786 0.00100786 1190.1 126 1 
0.000267954 0.00020728 8.60269e-05 0.0108925 0.000191177 0.000191177 1203.85 127 1 
0.000288587 0.00019479 7.56472e-06 0.0103743 -0.00130377 -0.00130377 1217.93 128 1 
0.00031823 0.00020201 1.24294e-05 0.0100941 -0.000408552 -0.000408552 1201.08 129 1 
-2.06163e-05 0.000209423 3.70744e-06 0.0110133 0.000776462 0.000776462 1188.63 130 1 
2.86216e-06 0.000206747 8.77219e-05 0.0098148 0.000108709 0.000108709 1171.78 131 1 
2.4975e-05 0.000201016 8.2629e-05 0.0103104 -0.000353127 -0.000353127 1208.77 132 1 
5.33124e-05 0.000199915 6.24191e-06 0.0107076 -0.000569208 -0.000569208 1197.8 133 1 
7.77523e-05 0.000216385 1.80901e-06 0.0111271 -2.25116e-05 -2.25116e-05 1189.36 134 1 
0.000105247 0.000201742 8.96584e-05 0.0103119 -0.000739938 -0.000739938 1193.82 135 1 
0.000139135 0.000227238 1.74934e-06 0.0122744 -4.88288e-05 -4.88288e-05 1209.61 136 1 
0.000157909 0.000227989 1.14466e-05 0.0126446 0.000129843 0.000129843 1213.31 137 1 
0.000186651 0.000225409 8.83233e-05 0.00999097 0.000235206 0.000235206 1192.23 138 1 
0.000214147 0.000231262 8.99017e-05 0.0111613 -0.00158062 -0.00158062 1168.56 139 1 
0.000242036 0.000232722 3.56425e-06 0.0101292 -0.000736579 -0.000736579 1177.56 140 1 
0.000257664 0.000224011 1.37637e-06 0.0136675 0.000616414 0.000616414 1189.54 141 1 
0.000280438 0.000223237 7.63338e-06 0.012682 5.58703e-05 5.58703e-05 1188.1 142 1 
0.00031073 0.000226087 6.44128e-07 0.0126783 -0.00146764 -0.00146764 1194.8 143 1 
0.000321917 0.000225696 2.16639e-06 0.0112809 0.00118088 0.00118088 1199.25 144 1 
-1.19571e-05 0.000219636 8.61237e-05 0.0111395 -0.000418813 -0.000418813 1174.81 145 1 
1.60563e-05 0.000228621 8.58561e-06 0.011053 0.000988148 0.000988148 1176.26 146 1 
3.69364e-05 0.000227317 1.15945e-05 0.0105739 0.000702238 0.000702238 1179.74 147 1 
7.24921e-05 0.000229724 8.36168e-06 0.0126818 0.00114263 0.00114263 1184.94 148 1 
8.64388e-05 0.000220108 1.86647e-06 0.0117154 -0.000566341 -0.000566341 1192.1 149 1 
0.000105249 0.000226312 2.52866e-07 0.0113665 0.000923348 0.000923348 1182.54 150 1 
0.000146668 0.000254285 3.17036e-06 0.0128222 0.000299645 0.000299645 1171.38 151 1 
0.000175182 0.000259272 8.11816e-06 0.0134637 0.000756748 0.000756748 1186 152 1 
0.000200871 0.000253783 8.12856e-05 0.0123501 0.000324712 0.000324712 1179.96 153 1 
0.000214833 0.0002472 6.7122e-06 0.012041 0.000313041 0.000313041 1159.42 154 1 
0.000249572 0.000245519 1.18102e-06 0.0119909 -0.000230437 -0.000230437 1175.34 155 1 
0.000270004 0.000254258 9.98111e-06 0.0138136 -0.000203216 -0.000203216 1184.73 156 1 
0.000291529 0.000251476 8.97721e-05 0.0128355 5.17216e-05 5.17216e-05 1169.77 157 1 
0.000315169 0.000260403 1.82622e-06 0.0123426 -0.000527744 -0.000527744 1174.39 158 1 
-1.62196e-05 0.000245933 4.77701e-06 0.0117145 0.000121339 0.000121339 1149.35 159 1 
6.21e-06 0.000246877 8.07237e-05 0.0141888 0.00043534 0.00043534 1140.25 160 1 
3.97055e-05 0.000257268 8.99845e-05 0.0123585 0.000511964 0.000511964 1203.07 161 1 
6.08181e-05 0.000262246 8.31632e-05 0.0123451 0.000114549 0.000114549 1207.01 162 1 
8.17496e-05 0.000260238 7.16262e-06 0.0125911 -6.33827e-05 -6.33827e-05 1156.96 163 1 
0.000101435 0.000254133 6.77509e-06 0.0111624 0.000425843 0.000425843 1125.57 164 1 
0.000130416 0.000249757 1.71221e-06 0.0132839 0.000820229 0.000820229 1168.54 165 1 
0.000166967 0.000283073 8.45943e-05 0.0132305 -0.0018541 -0.0018541 1195.07 166 1 
0.00019228 0.000273362 8.70717e-05 0.0159347 0.000987517 0.000987517 1197.7 167 1 
0.000215696 0.000278844 8.35885e-06 0.0147035 0.000575253 0.000575253 1145.47 168 1 
0.00023717 0.00026453 8.66721e-05 0.0135723 0.000414182 0.000414182 1136.8 169 1 
0.00025769 0.000275643 9.20702e-06 0.0127674 -0.0008205 -0.0008205 1175.87 170 1 
0.000281888 0.000273412 8.81088e-05 0.0156636 0.000348747 0.000348747 1186.36 171 1 
0.00031014 0.000268636 3.84072e-06 0.0128189 -0.000855211 -0.000855211 1168.47 172 1 
-2.91743e-05 0.000278038 7.77296e-06 0.0130532 0.000455061 0.000455061 1166.83 173 1 
-3.09538e-06 0.000284495 2.38111e-06 0.015113 -0.00127756 -0.00127756 1158.74 174 1 
2.38738e-05 0.000283288 4.78021e-06 0.0130496 -0.000319404 -0.000319404 1176.75 175 1 
5.10839e-05 0.000272334 1.51906e-05 0.0148866 -0.000483346 -0.000483346 1192.37 176 1 
6.59697e-05 0.000277042 1.64397e-06 0.0139997 -3.88848e-05 -3.88848e-05 1210.65 177 1 
8.7073e-05 0.00028676 8.54144e-05 0.0141283 -0.000227151 -0.000227151 1174.86 178 1 
0.000123785 0.000281161 4.35379e-06 0.0141184 -0.000373019 -0.000373019 1168.14 179 1 
0.000138205 0.000274626 2.19235e-06 0.0127741 -0.000517245 -0.000517245 1164.57 180 1 
0.000179914 0.000300907 4.19489e-07 0.0143872 -0.00023983 -0.00023983 1188.68 181 1 
0.000198471 0.000289454 1.61078e-06 0.0139449 0.000337635 0.000337635 1171.48 182 1 
0.000233283 0.000308503 7.92946e-06 0.0150302 0.00073438 0.00073438 1175.63 183 1 
0.000250225 0.000298887 1.56858e-06 0.0147809 0.00022254 0.00022254 1165.42 184 1 
0.000276011 0.000299327 9.42885e-06 0.0165158 0.00191334 0.00191334 1158.8 185 1 
0.000283304 0.000298787 8.23834e-05 0.0156357 0.000371561 0.000371561 1144.21 186 1 
0.000310883 0.000295951 8.26704e-05 0.0162396 -0.000916922 -0.000916922 1165.83 187 1 
-1.38721e-05 0.000296609 8.10235e-05 0.0148275 -0.000158916 -0.000158916 1163.77 188 1 
1.12282e-05 0.000301107 1.02748e-05 0.0155993 0.00120739 0.00120739 1174.69 189 1 
3.2794e-05 0.000295576 8.51733e-05 0.0154834 0.000745638 0.000745638 1175.28 190 1 
6.54338e-05 0.000300974 4.47687e-06 0.0161679 -0.000720625 -0.000720625 1191.52 191 1 
8.09325e-05 0.000306591 8.80361e-05 0.014335 -0.000247599 -0.000247599 1167.59 192 1 
0.000113044 0.000301082 5.34318e-06 0.0155187 -0.000866454 -0.000866454 1178.02 193 1 
0.000128755 0.000296725 8.83264e-05 0.0151176 -0.000549682 -0.000549682 1174.67 194 1 
0.000159219 0.000310375 8.63863e-05 0.0147199 0.00117871 0.00117871 1180.39 195 1 
0.000186075 0.000322052 1.63828e-06 0.0159751 4.00646e-05 4.00646e-05 1164.87 196 1 
0.000218746 0.000326593 1.04527e-05 0.0166941 6.56325e-05 6.56325e-05 1188.68 197 1 
0.000239049 0.000324982 8.68761e-05 0.0163875 0.00080643 0.00080643 1189.89 198 1 
0.000256761 0.000322699 1.58925e-07 0.0140797 -0.000155694 -0.000155694 1146.09 199 1 
0.000288895 0.000322048 5.2692e-06 0.0165446 -0.000953976 -0.000953976 1140.3 200 1 
0.000310715 0.00032993 1.68906e-06 0.0167784 -0.000512669 -0.000512669 1184.37 201 1 
-2.41027e-05 0.000327713 1.11403e-06 0.0162567 0.00106778 0.00106778 1137.28 202 1 
-1.48902e-06 0.000327953 1.83518e-06 0.0153975 8.45562e-05 8.45562e-05 1135.67 203 1 
2.32035e-05 0.000325914 9.56309e-06 0.0145502 2.15612e-05 2.15612e-05 1167.72 204 1 
4.38883e-05 0.000329144 1.46485e-06 0.0169227 -0.0013865 -0.0013865 1124.78 205 1 
7.04428e-05 0.0003207 8.00008e-06 0.0168436 -9.90844e-05 -9.90844e-05 1126.9 206 1 
9.93243e-05 0.000324012 6.50185e-07 0.0176297 0.00185205 0.00185205 1138.94 207 1 
0.00011915 0.000332951 1.12546e-05 0.0150795 0.000259224 0.000259224 1160.03 208 1 
0.000145855 0.000324483 8.82858e-05 0.0176591 0.000938865 0.000938865 1186.08 209 1 
0.000167983 0.000325394 2.31012e-06 0.0158953 -0.00142647 -0.00142647 1177.52 210 1 
0.000206554 0.000351213 6.72745e-06 0.0166564 0.00131141 0.00131141 1189.84 211 1 
0.000226862 0.000341696 1.98223e-06 0.0174446 0.000728608 0.000728608 1204.83 212 1 
0.000252008 0.000358381 5.19529e-06 0.0174099 0.000121694 0.000121694 1139.36 213 1 
0.000278007 0.000349883 9.70454e-07 0.0165904 -0.000976333 -0.000976333 1156.76 214 1 
0.000299858 0.000346722 3.56739e-07 0.0183647 -0.00137946 -0.00137946 1193.41 215 1 
-3.76578e-05 0.000344038 8.76202e-05 0.0159778 0.00114002 0.00114002 1172.46 216 1 
-1.34134e-05 0.000352517 6.31887e-06 0.0190137 0.00280763 0.00280763 1138.83 217 1 
1.74064e-05 0.000350412 1.01572e-06 0.017089 -0.000638519 -0.000638519 1140.42 218 1 
4.38848e-05 0.000351325 1.54264e-06 0.017105 0.00107642 0.00107642 1131.46 219 1 
5.16591e-05 0.000349208 2.13502e-06 0.0171293 -0.000384018 -0.000384018 1120.81 220 1 
8.55749e-05 0.000344869 7.63196e-06 0.0178584 -5.05716e-05 -5.05716e-05 1109.28 221 1 
0.000121601 0.000349663 8.95723e-05 0.0179415 -0.000588177 -0.000588177 1185.47 222 1 
0.000137052 0.000351886 4.75542e-06 0.0185818 0.000723072 0.000723072 1193.57 223 1 
0.000154744 0.000352514 7.56829e-06 0.0171347 -8.04543e-05 -8.04543e-05 1184.11 224 1 
0.000181296 0.000343448 7.45203e-07 0.0163405 -0.00171069 -0.00171069 1163.57 225 1 
0.000218337 0.000370014 2.26474e-06 0.0196354 -2.8439e-05 -2.8439e-05 1200.61 226 1 
0.000248116 0.00038472 9.65292e-06 0.0204599 -0.000418604 -0.000418604 1136.64 227 1 
0.000271802 0.00037735 5.28193e-06 0.0183716 -0.000102262 -0.000102262 1152.81 228 1 
0.000293296 0.000369642 8.87358e-05 0.0181763 0.000499154 0.000499154 1178.89 229 1 
-4.14101e-05 0.000373041 1.16283e-05 0.0186562 0.000152059 0.000152059 1123.15 230 1 
-1.95942e-05 0.000376988 8.74149e-05 0.0196829 -0.000163802 -0.000163802 1125.26 231 1 
-2.86681e-06 0.000375324 1.36722e-06 0.0196575 0.000429156 0.000429156 1125.43 232 1 
2.37145e-05 0.000372708 7.5547e-06 0.0180413 0.000847215 0.000847215 1138.26 233 1 
5.78776e-05 0.000377721 1.4668e-06 0.0185493 -0.000592412 -0.000592412 1180.98 234 1 
7.14363e-05 0.000376321 7.41936e-06 0.0202982 0.000679503 0.000679503 1178.18 235 1 
0.00010278 0.000374314 8.93738e-05 0.0194811 -0.00131144 -0.00131144 1161.29 236 1 
0.00012302 0.000376885 2.6575e-07 0.0191717 -0.000688988 -0.000688988 1154.85 237 1 
0.000149573 0.000378088 8.39651e-05 0.0184405 -0.0014285 -0.0014285 1140.72 238 1 
0.000172401 0.000367743 8.3075e-06 0.0185605 0.00014717 0.00014717 1146.03 239 1 
0.000200087 0.000374339 4.23215e-06 0.0196289 -0.000397793 -0.000397793 1184.57 240 1 
0.000233591 0.00040525 8.74155e-05 0.0193281 -4.02582e-05 -4.02582e-05 1161.06 241 1 
0.000254158 0.000398432 8.72894e-05 0.0218256 -0.00124909 -0.00124909 1147.8 242 1 
0.000284585 0.000393803 3.64564e-06 0.0200219 -0.000697966 -0.000697966 1171.78 243 1 
-4.54984e-05 0.000401848 8.99536e-05 0.0184922 -0.000503113 -0.000503113 1138.9 244 1 
-3.40765e-05 0.000407974 8.88796e-05 0.0212444 -0.00120993 -0.00120993 1140.68 245 1 
-8.19615e-06 0.000405188 4.15299e-06 0.0195595 0.00138419 0.00138419 1163.88 246 1 
2.05492e-05 0.000398253 3.07873e-06 0.0199751 0.00191782 0.00191782 1143.39 247 1 
4.52091e-05 0.000400169 8.98386e-05 0.0201018 0.000790319 0.000790319 1173.03 248 1 
6.37572e-05 0.00039717 7.93345e-06 0.0207839 0.000140698 0.000140698 1179.54 249 1 
9.4851e-05 0.000399502 8.71407e-05 0.0188326 -0.000800438 -0.000800438 1139.53 250 1 
0.000106176 0.000394347 1.24686e-06 0.0209056 0.000462878 0.000462878 1154.45 251 1 
0.000143296 0.000403876 4.44486e-06 0.0207778 0.000575089 0.000575089 1175.64 252 1 
0.000170382 0.000402646 9.19253e-06 0.0205072 0.0016758 0.0016758 1158.13 253 1 
0.000193545 0.000407473 7.55312e-06 0.0211925 -0.000804282 -0.000804282 1182.45 254 1 
0.000209084 0.000405228 5.71426e-06 0.0202882 -0.000276928 -0.000276928 1186.51 255 1 
0.000248302 0.000424592 1.1314e-05 0.0198439 -0.000157181 -0.000157181 1168.88 256 1 
0.00028029 0.000416429 5.54418e-06 0.0210509 0.000459091 0.000459091 1182.98 257 1 
0.000288074 0.000418242 5.64156e-06 0.020961 -0.000109469 -0.000109469 1180.67 258 1 
-3.80211e-05 0.000430162 3.74e-06 0.0225065 -3.64986e-06 -3.64986e-06 1132.75 259 1 
-1.4072e-05 0.000424982 9.01342e-05 0.0203704 -0.00196694 -0.00196694 1166.21 260 1 
1.18583e-05 0.000434471 2.29372e-06 0.024291 4.05138e-05 4.05138e-05 1194.9 261 1 
3.4723e-05 0.000424155 4.50598e-06 0.0206164 -0.000906396 -0.000906396 1173.26 262 1 
6.30373e-05 0.000419964 7.28725e-07 0.0215234 -0.000645118 -0.000645118 1178.09 263 1 
8.056e-05 0.000434909 3.52202e-06 0.0208263 -0.000401159 -0.000401159 1175.47 264 1 
0.000102539 0.000432856 8.68503e-05 0.0230732 -0.00164833 -0.00164833 1157.51 265 1 
0.000123287 0.000423868 8.60985e-05 0.0197481 0.00049997 0.00049997 1192.76 266 1 
0.00014842 0.000421438 5.65128e-07 0.0208008 -0.000568537 -0.000568537 1175.22 267 1 
0.000175836 0.000428782 3.13133e-06 0.0216299 0.000632801 0.000632801 1165.93 268 1 
0.000200673 0.000428968 2.53789e-06 0.0213436 0.00106239 0.00106239 1172.28 269 1 
0.00023065 0.000427646 1.00132e-06 0.0202162 -0.00131783 -0.00131783 1179.21 270 1 
0.000260419 0.000449543 5.68496e-06 0.0221038 -0.00138892 -0.00138892 1149.21 271 1 
0.000282914 0.000449321 8.8376e-05 0.0224953 -0.00053832 -0.00053832 1166.13 272 1 
0.000305016 0.000455225 4.59435e-06 0.0218945 0.00147299 0.00147299 1162.29 273 1 
-3.31314e-05 0.000445081 8.90039e-05 0.0235706 0.000133476 0.000133476 1137.47 274 1 
4.68282e-07 0.000453692 1.41741e-05 0.0212722 -0.000625283 -0.000625283 1175.27 275 1 
1.89923e-05 0.000446694 1.85594e-06 0.0213361 0.000252231 0.000252231 1203 276 1 
5.26463e-05 0.000449915 2.43748e-06 0.0227381 -0.000141305 -0.000141305 1199.63 277 1 
7.03444e-05 0.000456801 8.71963e-05 0.0234636 0.000546197 0.000546197 1181.82 278 1 
0.000100019 0.00045318 8.12295e-05 0.0237034 0.00144565 0.00144565 1134.39 279 1 
0.000116682 0.000438657 1.06319e-05 0.021241 0.000341577 0.000341577 1165.73 280 1 
0.000156458 0.00045369 8.60293e-05 0.0231166 -0.000857145 -0.000857145 1164.78 281 1 
0.000162106 0.000447794 1.45498e-06 0.0232901 -0.00103411 -0.00103411 1169.09 282 1 
0.000185582 0.000444529 8.53695e-05 0.0218868 0.00139557 0.00139557 1165.5 283 1 
0.000215986 0.000448265 8.75972e-06 0.0237979 0.000658628 0.000658628 1150.28 284 1 
0.000238658 0.000440885 9.01438e-05 0.0205589 -0.000535768 -0.000535768 1170.57 285 1 
3.4932e-05 7.27455e-06 2.97009e-05 0.00092744 0.00107462 0.00107462 1248.77 286 1 
0.000130858 8.64268e-07 3.02673e-05 0.000346011 -0.00085661 -0.00085661 1269.53 287 1 
0.000169802 0.000889413 2.83844e-05 0.044988 0.00169894 0.00169894 1177.52 288 1 
0.000194122 0.000894314 2.91378e-05 0.0455635 -0.000329363 -0.000329363 1201.95 289 1 
0.000137364 1.37431e-05 3.19023e-05 0.00045848 -0.000841345 -0.000841345 1269.42 290 1 
0.00017836 6.77311e-06 2.73799e-05 -0.000175648 -0.000949881 -0.000949881 1233.92 291 1 
0.000182961 1.17562e-05 2.61579e-05 -0.00107073 0.00167629 0.00167629 1231.27 292 1 
-7.08746e-05 0.000890098 2.69583e-05 0.0451471 -0.000356239 -0.000356239 1241.39 293 1 
-5.80401e-05 0.000901334 3.12767e-05 0.0438612 0.00120554 0.00120554 1222.62 294 1 
-1.48619e-05 0.000892617 2.58193e-05 0.0444845 0.00140895 0.00140895 1193.39 295 1 
0.000283051 1.2709e-05 2.80688e-05 0.000650193 -0.000625421 -0.000625421 1183.97 296 1 
0.00032484 1.30755e-05 2.87496e-05 0.000443821 0.00115924 0.00115924 1194.09 297 1 
4.53962e-05 0.000893041 2.69351e-05 0.0426285 -0.000391509 -0.000391509 1256.81 298 1 
7.88807e-05 0.000889742 2.77279e-05 0.0435743 -0.000798902 -0.000798902 1232.51 299 1 
0.000100758 0.000887612 2.5024e-05 0.0451346 -0.000554642 -0.000554642 1249.73 300 1 
3.59365e-05 3.32078e-05 2.49643e-05 0.000598921 0.000123425 0.000123425 1230.96 301 1 
5.62319e-05 3.59399e-05 2.97433e-05 0.00307682 0.000610486 0.000610486 1225.21 302 1 
7.93574e-05 3.60306e-05 3.11609e-05 0.00152627 -6.81298e-05 -6.81298e-05 1199.05 303 1 
0.000109309 3.55627e-05 2.63052e-05 0.00200151 -8.82491e-05 -8.82491e-05 1181.84 304 1 
0.000137292 3.77616e-05 2.40231e-05 0.00202958 0.00124952 0.00124952 1250.72 305 1 
0.000159739 3.4781e-05 2.53531e-05 0.00266855 0.000988233 0.000988233 1254.76 306 1 
0.000180825 4.50068e-05 3.13457e-05 0.000328106 2.543e-06 2.543e-06 1229.95 307 1 
0.000203912 3.89825e-05 2.20843e-05 0.00300185 -0.000189117 -0.000189117 1226.2 308 1 
0.000227298 3.56608e-05 2.52555e-05 0.00154243 -0.000206887 -0.000206887 1214.9 309 1 
0.000246982 3.07359e-05 2.26e-05 0.00209749 -0.000646629 -0.000646629 1180.47 310 1 
0.00026937 3.72805e-05 3.25403e-05 0.000428264 0.000331734 0.000331734 1196.06 311 1 
0.000294104 4.08435e-05 3.63121e-05 0.00190217 -0.00154712 -0.00154712 1221.3 312 1 
0.00031653 4.36195e-05 2.66145e-05 0.00226552 -0.000126979 -0.000126979 1209.03 313 1 
-4.70796e-07 3.36582e-05 2.81061e-05 0.00220432 0.000621285 0.000621285 1227.78 314 1 
8.16277e-06 3.76726e-05 2.82353e-05 0.00096287 -0.000555752 -0.000555752 1226.95 315 1 
3.82674e-05 4.73017e-05 3.62148e-05 0.00242364 -0.000472921 -0.000472921 1215.69 316 1 
6.18695e-05 5.42016e-05 3.31333e-05 0.00172195 -0.0010748 -0.0010748 1223.89 317 1 
8.36943e-05 5.81725e-05 2.89783e-05 0.0039154 0.000178993 0.000178993 1219.76 318 1 
0.000115747 6.14694e-05 2.6953e-05 0.00355467 -0.00163518 -0.00163518 1222.6 319 1 
0.000133157 6.25558e-05 2.43743e-05 0.00242143 -0.000359608 -0.000359608 1243.29 320 1 
0.000157282 5.15738e-05 3.2592e-05 0.00245077 0.000500251 0.000500251 1264.01 321 1 
0.000189571 5.89557e-05 2.58925e-05 0.0033656 -3.61158e-05 -3.61158e-05 1232.21 322 1 
0.000212186 6.24594e-05 2.95029e-05 0.00246698 -0.00143812 -0.00143812 1242.91 323 1 
0.000238612 5.66976e-05 2.47317e-05 0.00336898 0.00123062 0.00123062 1232.89 324 1 
0.000268383 5.23587e-05 2.45101e-05 0.00344105 0.000482948 0.000482948 1210.16 325 1 
0.000287089 6.20115e-05 2.26155e-05 0.00349127 -0.000241222 -0.000241222 1223.21 326 1 
0.000302068 6.01408e-05 2.64217e-05 0.0018183 -3.18348e-05 -3.18348e-05 1230.21 327 1 
0.000329601 5.73801e-05 2.90768e-05 0.00277268 0.00067444 0.00067444 1206.41 328 1 
0.000349709 6.19388e-05 2.31991e-05 0.00325613 0.00127252 0.00127252 1207.62 329 1 
1.55697e-05 5.38303e-05 2.42078e-05 0.00170851 0.000359397 0.000359397 1200.46 330 1 
5.87653e-05 7.85599e-05 3.27251e-05 0.00318115 -0.00121476 -0.00121476 1214.09 331 1 
7.99721e-05 8.93778e-05 2.40692e-05 0.00518573 -0.000115003 -0.000115003 1216.68 332 1 
0.000112177 8.11353e-05 2.50222e-05 0.00449433 0.000856997 0.000856997 1204.12 333 1 
0.000120734 7.69549e-05 2.91153e-05 0.00346152 -9.3162e-06 -9.3162e-06 1212.39 334 1 
0.000153226 8.1097e-05 2.76342e-05 0.00446153 0.000853607 0.000853607 1209.72 335 1 
0.000173316 8.92875e-05 2.99912e-05 0.0047003 0.00022624 0.00022624 1208.93 336 1 
0.000200422 7.69738e-05 2.10389e-05 0.00362785 0.000560346 0.000560346 1224.95 337 1 
0.000222285 8.17711e-05 2.6113e-05 0.00520226 4.38231e-05 4.38231e-05 1230.51 338 1 
0.000244193 8.02391e-05 3.29042e-05 0.00354384 -0.0014243 -0.0014243 1196.12 339 1 
0.000274721 8.80395e-05 2.93906e-05 0.00356946 0.00107778 0.00107778 1167.17 340 1 
0.000295111 8.93253e-05 2.27002e-05 0.00493273 -0.000578501 -0.000578501 1194.78 341 1 
0.0003183 8.40004e-05 2.23915e-05 0.00295989 0.0012003 0.0012003 1183.71 342 1 
0.000340109 8.89304e-05 2.48884e-05 0.00583248 -0.000331369 -0.000331369 1202.57 343 1 
-1.42798e-06 8.4715e-05 2.88389e-05 0.00436532 -0.000926469 -0.000926469 1200.29 344 1 
3.18151e-05 8.1741e-05 2.37024e-05 0.0030083 -6.14347e-05 -6.14347e-05 1185.56 345 1 
6.228e-05 9.84337e-05 3.71528e-05 0.00620779 0.000617769 0.000617769 1228.17 346 1 
8.76236e-05 0.000108009 2.45511e-05 0.00637312 0.00021858 0.00021858 1211.18 347 1 
0.000112229 0.000102389 2.72197e-05 0.00415773 0.000618018 0.000618018 1195.66 348 1 
0.000138934 0.000105183 2.94058e-05 0.00568793 0.00167461 0.00167461 1208.14 349 1 
0.000159212 0.000112802 3.63153e-05 0.00667853 -0.000432516 -0.000432516 1217.86 350 1 