ITEM: TIMESTEP
3600
ITEM: NUMBER OF ATOMS
2220
ITEM: BOX BOUNDS xy xz yz pp pp pp
0 0.000484556 0.000123956
0 0.0009015 0
0 9.015e-05 0
ITEM: ATOMS x y z vx vy vy c_rho_peratom id type 
9.4339e-05 1.21406e-05 8.91915e-05 0.000604969 -1.29538e-06 -1.29538e-06 1192.99 1 1 
0.000182767 0.000894279 7.64701e-05 0.0447072 -1.10649e-06 -1.10649e-06 1248.59 2 1 
0.000147512 1.03029e-05 6.0604e-06 0.000515013 1.03362e-05 1.03362e-05 1217.59 3 1 
0.000223948 0.000886646 1.83729e-06 0.0443348 -2.9287e-06 -2.9287e-06 1224.82 4 1 
0.00046149 0.000887539 8.94266e-05 0.0443793 -5.91653e-07 -5.91653e-07 1198.38 5 1 
0.000229484 1.96904e-05 8.47275e-05 0.000988446 2.08326e-06 2.08326e-06 1207.97 6 1 
0.000276612 0.000894036 6.95134e-06 0.0446998 1.35222e-06 1.35222e-06 1198.62 7 1 
0.000265079 9.87609e-06 8.18873e-05 0.000499089 2.03839e-06 2.03839e-06 1204.34 8 1 
0.000311806 1.07843e-05 8.83229e-05 0.000540534 1.97052e-06 1.97052e-06 1209.61 9 1 
0.00031051 2.97165e-05 8.11034e-05 0.00148903 -3.02706e-06 -3.02706e-06 1190.08 10 1 
0.000344516 1.54091e-05 3.44704e-06 0.000760002 9.56402e-06 9.56402e-06 1203.98 11 1 
2.37754e-05 1.63251e-05 5.65823e-06 0.000828734 -1.28435e-06 -1.28435e-06 1154.91 12 1 
0.000430964 0.000891967 2.9177e-06 0.0446005 -6.31491e-06 -6.31491e-06 1210.98 13 1 
5.66307e-05 8.40834e-06 8.51534e-06 0.000414217 1.49367e-06 1.49367e-06 1199.69 14 1 
0.000358068 0.000899005 1.87029e-05 0.0449518 1.93769e-06 1.93769e-06 1190.51 15 1 
8.8657e-05 4.25321e-05 8.41179e-05 0.00212062 1.8252e-06 1.8252e-06 1191.74 16 1 
0.000127818 3.60094e-05 1.12011e-05 0.00180225 1.29826e-06 1.29826e-06 1176.47 17 1 
0.000141152 3.24423e-05 3.8551e-06 0.00162625 -2.9895e-06 -2.9895e-06 1175.82 18 1 
0.000170953 5.64183e-05 8.81733e-05 0.00281805 2.15979e-06 2.15979e-06 1188.36 19 1 
0.000182665 2.97961e-05 1.84265e-05 0.00148932 -3.83437e-06 -3.83437e-06 1186.32 20 1 
0.000204898 3.69273e-05 2.80123e-06 0.00184394 2.01664e-07 2.01664e-07 1186.77 21 1 
0.000226218 2.68994e-05 5.17272e-06 0.00134246 -1.86521e-06 -1.86521e-06 1219.82 22 1 
0.00026134 3.11174e-05 8.6544e-05 0.00155249 4.15176e-06 4.15176e-06 1196.09 23 1 
0.000296307 4.77706e-05 1.37473e-05 0.00238162 2.48008e-06 2.48008e-06 1186.06 24 1 
0.000309713 4.87706e-05 8.03117e-05 0.0024347 1.58953e-06 1.58953e-06 1207.88 25 1 
0.000335622 3.35683e-05 2.70623e-06 0.00168058 6.49326e-06 6.49326e-06 1199.65 26 1 
0.000354641 3.35957e-05 1.6151e-05 0.00167606 2.61001e-06 2.61001e-06 1226.64 27 1 
1.9041e-05 3.21992e-05 4.1987e-06 0.00160923 1.94272e-07 1.94272e-07 1185.05 28 1 
5.74753e-05 4.75822e-05 8.72136e-05 0.00236914 6.16123e-06 6.16123e-06 1209.87 29 1 
7.18173e-05 3.8184e-05 8.48453e-05 0.00191671 -3.09559e-06 -3.09559e-06 1190.54 30 1 
0.000125247 6.36818e-05 8.55058e-05 0.00317835 3.10014e-07 3.10014e-07 1195.67 31 1 
0.000129049 4.34947e-05 1.27233e-06 0.00218123 -6.19949e-06 -6.19949e-06 1170.51 32 1 
0.000167137 7.48368e-05 8.99883e-05 0.0037426 1.88014e-06 1.88014e-06 1189.68 33 1 
0.000173029 4.41547e-05 8.67976e-05 0.00220376 -5.0254e-06 -5.0254e-06 1193.37 34 1 
0.000218558 6.75851e-05 1.96027e-06 0.00337729 2.56179e-06 2.56179e-06 1151.86 35 1 
0.000244146 6.49413e-05 4.36177e-06 0.00324046 2.48614e-06 2.48614e-06 1188.39 36 1 
0.000250025 5.70777e-05 1.68994e-06 0.00285231 -5.11893e-07 -5.11893e-07 1192.98 37 1 
0.000267812 5.62043e-05 4.6543e-07 0.002815 -8.76137e-06 -8.76137e-06 1199.36 38 1 
0.000307352 5.23915e-05 8.99869e-05 0.00262144 -2.16475e-06 -2.16475e-06 1197.3 39 1 
0.000335921 5.89097e-05 9.39296e-06 0.00293952 -9.75675e-07 -9.75675e-07 1209.24 40 1 
0.000359093 6.20758e-05 4.85097e-06 0.00310374 -2.39996e-06 -2.39996e-06 1221.53 41 1 
1.69346e-05 6.07235e-05 8.41059e-05 0.00302754 6.09865e-06 6.09865e-06 1203.69 42 1 
4.07285e-05 4.75751e-05 6.04654e-06 0.00238497 -4.39157e-06 -4.39157e-06 1190.47 43 1 
5.48287e-05 5.3358e-05 9.00226e-05 0.00266796 -5.84544e-07 -5.84544e-07 1210.91 44 1 
9.86351e-05 6.01174e-05 1.53414e-06 0.00301775 -1.13379e-05 -1.13379e-05 1193.17 45 1 
0.000174514 8.11419e-05 2.58812e-06 0.00405726 -9.7785e-07 -9.7785e-07 1183.74 46 1 
0.000166743 7.35575e-05 8.77291e-05 0.00367962 -1.63074e-06 -1.63074e-06 1190.67 47 1 
0.000201067 8.09789e-05 8.87683e-05 0.00405246 -4.0871e-06 -4.0871e-06 1166.46 48 1 
0.000242033 8.34605e-05 2.5357e-06 0.00417616 -2.56865e-07 -2.56865e-07 1203.11 49 1 
0.000254115 7.81691e-05 1.08021e-05 0.00390477 4.06819e-06 4.06819e-06 1205.99 50 1 
0.000282099 8.52462e-05 7.68208e-05 0.00426448 2.40758e-06 2.40758e-06 1200.14 51 1 
0.000321484 8.8597e-05 4.79277e-06 0.00443464 3.17142e-07 3.17142e-07 1196.15 52 1 
0.000340539 8.14639e-05 9.99237e-06 0.00407436 -6.63093e-07 -6.63093e-07 1214.64 53 1 
0.000360166 8.11362e-05 1.3265e-06 0.00405003 4.58047e-06 4.58047e-06 1212.28 54 1 
1.59501e-05 9.11179e-05 8.92184e-05 0.00456104 -2.17661e-06 -2.17661e-06 1186.48 55 1 
4.62578e-05 8.49216e-05 8.53509e-05 0.00425134 -5.50556e-07 -5.50556e-07 1210.73 56 1 
6.93191e-05 8.17445e-05 4.04292e-06 0.00408664 -7.58275e-07 -7.58275e-07 1215.8 57 1 
0.00010666 9.58669e-05 8.53257e-05 0.00479205 -2.43424e-06 -2.43424e-06 1218.32 58 1 
0.000117368 8.83168e-05 4.23736e-06 0.00441393 -2.45323e-06 -2.45323e-06 1191.66 59 1 
0.000129059 7.68527e-05 1.10985e-05 0.00383378 3.86426e-06 3.86426e-06 1184.64 60 1 
0.000188998 0.000106233 1.29007e-05 0.00531897 -4.45761e-06 -4.45761e-06 1213.86 61 1 
0.000220576 0.000107517 6.89791e-06 0.00537477 -1.86119e-06 -1.86119e-06 1202.84 62 1 
0.000255756 0.000112927 7.93258e-05 0.00563632 3.55668e-06 3.55668e-06 1199.9 63 1 
0.00027213 0.00010616 3.1538e-06 0.00531024 -6.29859e-06 -6.29859e-06 1208.91 64 1 
0.000309469 0.000101541 1.03887e-05 0.005083 -7.39971e-06 -7.39971e-06 1189.52 65 1 
0.000330343 0.000115131 3.34051e-06 0.00576074 -2.34082e-06 -2.34082e-06 1217.78 66 1 
0.000333744 9.80093e-05 5.86723e-06 0.00489353 3.16644e-06 3.16644e-06 1218.97 67 1 
1.81381e-05 0.00010644 8.85798e-05 0.00531879 1.74421e-06 1.74421e-06 1183.46 68 1 
2.16681e-05 0.000114265 1.84929e-06 0.0057122 6.21536e-06 6.21536e-06 1184.33 69 1 
4.63266e-05 0.000101086 8.84673e-05 0.00505505 -1.89239e-06 -1.89239e-06 1212.77 70 1 
7.29106e-05 0.000101142 5.22927e-06 0.00505331 -1.3543e-06 -1.3543e-06 1198.54 71 1 
0.0001164 0.000113823 1.15187e-06 0.00569323 -2.30008e-06 -2.30008e-06 1196.78 72 1 
0.000140799 0.000109104 2.92845e-06 0.00545685 -2.63531e-06 -2.63531e-06 1182.04 73 1 
0.000165604 0.000115958 4.52947e-06 0.00580273 -5.44126e-06 -5.44126e-06 1203.31 74 1 
0.000180522 0.000107003 5.65575e-06 0.00534021 4.93463e-06 4.93463e-06 1206.3 75 1 
0.000220471 0.000125707 7.92546e-06 0.00628075 8.03268e-07 8.03268e-07 1188.54 76 1 
0.000271543 0.000131464 8.72814e-05 0.00657405 8.19737e-07 8.19737e-07 1201.2 77 1 
0.00029353 0.000126786 7.31799e-06 0.00634208 -8.3895e-06 -8.3895e-06 1177.48 78 1 
0.000329038 0.000131537 7.11339e-06 0.00658105 1.59053e-06 1.59053e-06 1205.71 79 1 
0.000347692 0.000134826 4.83684e-06 0.0067529 -3.64826e-06 -3.64826e-06 1183.05 80 1 
0.000368479 0.000130989 4.2268e-06 0.00653852 5.90657e-06 5.90657e-06 1176.73 81 1 
4.21752e-05 0.000143135 6.58426e-06 0.00715313 -1.84088e-06 -1.84088e-06 1195.2 82 1 
6.05727e-05 0.00013334 7.52421e-07 0.0066705 -5.84702e-07 -5.84702e-07 1167.68 83 1 
9.39971e-05 0.000130599 1.15091e-05 0.00652604 3.12452e-06 3.12452e-06 1195.67 84 1 
9.24291e-05 0.000125136 5.53558e-06 0.00625301 5.34589e-06 5.34589e-06 1185.78 85 1 
0.000128528 0.000132699 8.8293e-05 0.00663432 -5.81264e-06 -5.81264e-06 1198.19 86 1 
0.000148595 0.000126036 1.15809e-06 0.0063105 -2.59007e-06 -2.59007e-06 1197.36 87 1 
0.000187688 0.000131954 2.69529e-06 0.00659841 4.98362e-06 4.98362e-06 1169.12 88 1 
0.000207827 0.000129454 8.59011e-05 0.00648634 -6.21813e-06 -6.21813e-06 1176.16 89 1 
0.000260258 0.000141254 4.44132e-06 0.00706829 -3.27071e-06 -3.27071e-06 1214.29 90 1 
0.000283362 0.000149625 1.39358e-05 0.00747263 1.32115e-06 1.32115e-06 1180.55 91 1 
0.000329051 0.000161064 8.45424e-05 0.00806061 -3.50179e-06 -3.50179e-06 1212.7 92 1 
0.000344723 0.000163924 3.6264e-06 0.00819442 4.43544e-06 4.43544e-06 1194.91 93 1 
0.000360947 0.00015249 8.92364e-05 0.00761966 -4.95386e-06 -4.95386e-06 1183.13 94 1 
0.00037743 0.000150263 6.76223e-06 0.00752029 -3.61345e-06 -3.61345e-06 1197.05 95 1 
5.68015e-05 0.000143843 3.64527e-06 0.00718171 2.83048e-06 2.83048e-06 1181.58 96 1 
9.35666e-05 0.000168178 8.05949e-07 0.00841814 -5.40452e-06 -5.40452e-06 1222.13 97 1 
9.7711e-05 0.00015451 8.06134e-05 0.00772083 8.02269e-06 8.02269e-06 1189.49 98 1 
0.000117687 0.000151666 8.45467e-05 0.0075806 2.48196e-07 2.48196e-07 1195.4 99 1 
0.000151097 0.000159599 8.65883e-05 0.00798065 -3.15828e-06 -3.15828e-06 1190.9 100 1 
0.000169339 0.000153736 5.45801e-06 0.00768851 -5.21714e-06 -5.21714e-06 1181.22 101 1 
0.000191135 0.00015508 8.2642e-05 0.00775562 1.62165e-06 1.62165e-06 1161.89 102 1 
0.000215363 0.000155613 8.60522e-05 0.00777808 -8.82142e-06 -8.82142e-06 1203.7 103 1 
0.00024059 0.000153015 7.72572e-05 0.00764766 5.0522e-06 5.0522e-06 1218.27 104 1 
0.000277574 0.000162753 8.86501e-05 0.00814153 2.68964e-06 2.68964e-06 1208.41 105 1 
0.000331559 0.000178858 9.35924e-06 0.00894648 -5.10773e-06 -5.10773e-06 1197.8 106 1 
0.000361561 0.000172542 8.42052e-05 0.00862436 1.78346e-06 1.78346e-06 1185.87 107 1 
3.48403e-05 0.000179328 8.87987e-05 0.00897084 -2.22253e-06 -2.22253e-06 1187.59 108 1 
4.38656e-05 0.000177952 8.32008e-05 0.00889869 -2.10902e-06 -2.10902e-06 1187.79 109 1 
7.9312e-05 0.000180515 1.22607e-05 0.009016 5.33872e-06 5.33872e-06 1238.39 110 1 
0.000103959 0.000188074 5.10078e-06 0.00940502 -4.56609e-07 -4.56609e-07 1202.94 111 1 
0.000140978 0.000188509 8.51869e-06 0.0094122 1.01173e-05 1.01173e-05 1207.24 112 1 
0.000147687 0.000177923 3.54081e-07 0.00889542 -1.30377e-06 -1.30377e-06 1211.69 113 1 
0.00017317 0.00018722 8.2009e-05 0.00935921 4.87284e-07 4.87284e-07 1213.1 114 1 
0.000202551 0.000187245 8.6515e-05 0.0093664 3.02568e-07 3.02568e-07 1175.13 115 1 
0.000217956 0.000178963 1.10715e-05 0.00893691 2.76229e-06 2.76229e-06 1176.93 116 1 
0.00023786 0.000172152 9.95659e-06 0.00861102 -5.26433e-06 -5.26433e-06 1200.27 117 1 
0.000274072 0.000183788 8.92325e-05 0.00919141 4.86476e-06 4.86476e-06 1207.16 118 1 
0.000302187 0.000181351 1.57994e-05 0.00906463 1.92736e-06 1.92736e-06 1182.84 119 1 
0.000300515 0.000179425 2.85399e-06 0.0089715 2.69461e-06 2.69461e-06 1205.79 120 1 
2.85906e-05 0.000202508 8.93154e-05 0.0101259 7.10251e-07 7.10251e-07 1199.11 121 1 
4.11064e-05 0.000201249 6.69298e-06 0.010056 6.64224e-07 6.64224e-07 1209.53 122 1 
7.81722e-05 0.000207489 3.76199e-06 0.0103718 2.03242e-07 2.03242e-07 1194.19 123 1 
0.000106443 0.000212289 2.49666e-06 0.0106129 2.13445e-06 2.13445e-06 1185.34 124 1 
0.000135294 0.000214225 1.25586e-05 0.0107169 -6.1424e-06 -6.1424e-06 1181.5 125 1 
0.000140746 0.000207272 1.03162e-05 0.0103611 5.89075e-06 5.89075e-06 1181.52 126 1 
0.000188306 0.000212547 7.51163e-07 0.0106298 -1.66231e-06 -1.66231e-06 1188.73 127 1 
0.000170938 0.00019126 9.00255e-05 0.00955845 -1.6539e-06 -1.6539e-06 1219.78 128 1 
0.000212243 0.000202618 1.57922e-05 0.0101253 -1.48178e-06 -1.48178e-06 1148.94 129 1 
0.000243076 0.000210684 5.98879e-06 0.0105318 8.34389e-06 8.34389e-06 1185.89 130 1 
0.000274392 0.00020706 8.75636e-05 0.0103588 -2.5362e-06 -2.5362e-06 1192.07 131 1 
0.000283916 0.000203429 8.63158e-05 0.0101685 -4.00895e-07 -4.00895e-07 1190.84 132 1 
0.000322058 0.000210278 3.75571e-06 0.0105108 6.28682e-07 6.28682e-07 1198.6 133 1 
0.000360833 0.000217488 2.75361e-06 0.0108805 -8.21357e-06 -8.21357e-06 1224.71 134 1 
0.00037271 0.000204369 8.42419e-05 0.0102246 -8.78314e-07 -8.78314e-07 1203.25 135 1 
8.0665e-05 0.000235635 4.84029e-06 0.0117782 1.24152e-06 1.24152e-06 1204.98 136 1 
9.05393e-05 0.000227043 1.46099e-05 0.0113539 4.32845e-06 4.32845e-06 1184.72 137 1 
0.000126685 0.000229166 1.02946e-06 0.0114559 -4.2449e-07 -4.2449e-07 1198.47 138 1 
0.000159426 0.000239036 8.88392e-05 0.0119485 7.16827e-06 7.16827e-06 1202.88 139 1 
0.000186477 0.000231544 8.44087e-06 0.011575 2.30548e-08 2.30548e-08 1175.17 140 1 
0.000188326 0.000221468 8.4606e-05 0.0110771 -1.99849e-06 -1.99849e-06 1184.67 141 1 
0.000215963 0.000233048 2.23147e-06 0.0116552 -3.37192e-06 -3.37192e-06 1173.24 142 1 
0.000244063 0.000234475 2.21118e-06 0.0117261 1.49407e-06 1.49407e-06 1202.16 143 1 
0.000246009 0.000223136 7.13992e-06 0.0111563 -7.65695e-07 -7.65695e-07 1193.34 144 1 
0.000280472 0.000226103 8.69356e-05 0.0113086 -2.45989e-06 -2.45989e-06 1153.11 145 1 
0.000311931 0.000229934 2.50297e-06 0.0114935 3.14653e-06 3.14653e-06 1205.23 146 1 
0.00032943 0.000231093 8.43257e-06 0.0115498 5.11626e-07 5.11626e-07 1224.03 147 1 
0.000366253 0.000225256 9.40132e-06 0.0112543 7.0119e-06 7.0119e-06 1197.97 148 1 
0.000372694 0.000215764 8.70793e-05 0.0107882 -5.69247e-06 -5.69247e-06 1212.82 149 1 
4.60527e-05 0.000226899 8.762e-05 0.0113361 4.50663e-06 4.50663e-06 1179.08 150 1 
0.000119327 0.000258706 9.77397e-06 0.0129422 -3.28986e-06 -3.28986e-06 1188.33 151 1 
0.000142285 0.000257294 3.16375e-06 0.0128592 3.54908e-06 3.54908e-06 1190.7 152 1 
0.00017166 0.000253618 8.46574e-05 0.0126857 -4.40737e-06 -4.40737e-06 1178.68 153 1 
0.000176799 0.000248771 8.95845e-05 0.012439 1.81362e-06 1.81362e-06 1180.88 154 1 
0.000204244 0.0002509 8.48029e-05 0.012545 -1.41194e-06 -1.41194e-06 1184.09 155 1 
0.000242841 0.000257631 8.85252e-06 0.012887 3.80405e-10 3.80405e-10 1174.92 156 1 
0.000280419 0.000263199 8.27411e-05 0.013162 -2.18222e-06 -2.18222e-06 1178.05 157 1 
0.000296646 0.000268702 1.71355e-06 0.0134362 2.05815e-06 2.05815e-06 1197.98 158 1 
0.000301316 0.000246986 7.40527e-06 0.0123551 -7.15284e-06 -7.15284e-06 1209.2 159 1 
0.000328667 0.000248715 7.79833e-05 0.0124296 3.48393e-06 3.48393e-06 1187.12 160 1 
0.000371694 0.000265266 2.23771e-06 0.0132656 -3.31999e-06 -3.31999e-06 1159.31 161 1 
4.4142e-05 0.00026403 8.38159e-05 0.0132023 -2.86654e-06 -2.86654e-06 1219.7 162 1 
5.43983e-05 0.000255322 7.27011e-06 0.0127636 3.01853e-06 3.01853e-06 1214.27 163 1 
6.69853e-05 0.000252717 6.64937e-06 0.0126251 4.06946e-06 4.06946e-06 1238.11 164 1 
9.22543e-05 0.000249941 3.08576e-06 0.0124947 3.22681e-06 3.22681e-06 1207.08 165 1 
0.000176571 0.000290006 7.9426e-05 0.0144959 -4.35472e-07 -4.35472e-07 1196.89 166 1 
0.00018427 0.000275672 1.02447e-06 0.0137866 -8.32392e-07 -8.32392e-07 1178.89 167 1 
0.000218336 0.000279698 6.04819e-06 0.0139804 7.53114e-06 7.53114e-06 1210.58 168 1 
0.000219045 0.000266231 8.78671e-06 0.0133145 -6.1878e-06 -6.1878e-06 1203.53 169 1 
0.000256875 0.000281173 6.20892e-06 0.0140557 3.30874e-06 3.30874e-06 1160.5 170 1 
0.000281677 0.000273401 4.79576e-06 0.0136734 -1.45311e-06 -1.45311e-06 1197.67 171 1 
0.000297107 0.000265926 8.35356e-05 0.013287 8.09342e-06 8.09342e-06 1195.8 172 1 
0.000326975 0.000278144 1.18344e-05 0.0139111 5.99639e-07 5.99639e-07 1182.39 173 1 
0.000370758 0.000286508 8.65828e-05 0.0143265 3.0109e-06 3.0109e-06 1198.74 174 1 
0.000385294 0.000285307 4.79404e-06 0.0142666 -1.21312e-06 -1.21312e-06 1191.51 175 1 
5.73689e-05 0.000275617 1.75592e-05 0.0137842 -5.75203e-07 -5.75203e-07 1194.28 176 1 
6.90951e-05 0.000272041 8.90538e-05 0.0136038 -4.82543e-06 -4.82543e-06 1202.22 177 1 
9.72347e-05 0.000290105 1.93166e-06 0.0145053 -2.67086e-06 -2.67086e-06 1155.64 178 1 
0.000134787 0.000287887 2.89785e-06 0.014392 2.5478e-06 2.5478e-06 1201.11 179 1 
0.000130056 0.000276342 8.71347e-05 0.013811 -1.65035e-06 -1.65035e-06 1179.2 180 1 
0.000225522 0.00031004 5.26054e-06 0.0155024 -1.36228e-06 -1.36228e-06 1194.6 181 1 
0.000208101 0.000283854 8.86018e-05 0.0141863 5.98544e-06 5.98544e-06 1216.26 182 1 
0.000264894 0.000310037 1.0032e-05 0.0154963 4.32785e-06 4.32785e-06 1174.62 183 1 
0.000280712 0.000305639 3.63785e-06 0.0152795 1.80258e-06 1.80258e-06 1172.33 184 1 
0.000306161 0.000299323 1.92639e-05 0.0149611 1.46595e-06 1.46595e-06 1145.32 185 1 
0.00031461 0.00029766 8.41871e-05 0.014888 -1.58007e-06 -1.58007e-06 1168.81 186 1 
0.000336022 0.00029854 8.90157e-05 0.0149302 -4.3887e-06 -4.3887e-06 1185.23 187 1 
0.000371043 0.000298314 7.78787e-05 0.014913 9.39521e-07 9.39521e-07 1188.85 188 1 
0.00039368 0.000301571 1.83174e-05 0.015072 4.68964e-06 4.68964e-06 1150.26 189 1 
6.71234e-05 0.000296363 8.68123e-05 0.0148228 -6.5889e-06 -6.5889e-06 1140.42 190 1 
0.000106021 0.000309732 9.02913e-07 0.0154944 -7.25401e-07 -7.25401e-07 1186.64 191 1 
0.000123524 0.000306594 8.63286e-05 0.0153243 3.47364e-06 3.47364e-06 1197.18 192 1 
0.000156048 0.000317205 7.87629e-06 0.0158628 -3.44202e-06 -3.44202e-06 1205.32 193 1 
0.000155237 0.000296817 2.25773e-06 0.0148406 -2.76969e-06 -2.76969e-06 1212.76 194 1 
0.000203623 0.000313106 8.97952e-05 0.0156587 -6.51158e-08 -6.51158e-08 1187.69 195 1 
0.000258493 0.000330801 8.60075e-05 0.0165383 -4.24872e-06 -4.24872e-06 1171.79 196 1 
0.000290926 0.000330037 1.46859e-05 0.0165028 -6.68777e-07 -6.68777e-07 1172.57 197 1 
0.000299625 0.000327195 8.84143e-05 0.0163573 5.63514e-06 5.63514e-06 1160.01 198 1 
0.000317694 0.000322626 8.94679e-05 0.0161307 3.77252e-07 3.77252e-07 1163.25 199 1 
0.000346982 0.000325388 5.80752e-06 0.0162698 -2.85015e-07 -2.85015e-07 1167.27 200 1 
0.00037729 0.000327953 5.46151e-06 0.0164006 2.98168e-06 2.98168e-06 1161.74 201 1 
5.07034e-05 0.000331309 8.79224e-05 0.0165703 -9.95834e-07 -9.95834e-07 1157.67 202 1 
6.55399e-05 0.00032812 8.31987e-05 0.0163997 7.86482e-06 7.86482e-06 1175.99 203 1 
8.26738e-05 0.000333942 2.06491e-06 0.0166944 3.76038e-06 3.76038e-06 1183.48 204 1 
0.000101895 0.000326204 1.60845e-06 0.0163115 4.35257e-06 4.35257e-06 1171.7 205 1 
0.00013661 0.000323387 9.04126e-06 0.0161714 -2.55114e-07 -2.55114e-07 1211.98 206 1 
0.000154309 0.0003264 1.0671e-05 0.0163194 7.84656e-07 7.84656e-07 1195.15 207 1 
0.000189288 0.000332344 1.50559e-05 0.0166108 7.36681e-06 7.36681e-06 1169.49 208 1 
0.000211811 0.000326163 1.20111e-07 0.0163041 -1.0429e-07 -1.0429e-07 1184.75 209 1 
0.000237331 0.000329394 1.26937e-06 0.01646 8.48574e-06 8.48574e-06 1170.73 210 1 
0.00030723 0.000349102 6.96485e-06 0.0174567 -2.56878e-06 -2.56878e-06 1170.03 211 1 
0.000324389 0.000349716 8.96391e-05 0.0174933 -1.47339e-06 -1.47339e-06 1180.65 212 1 
0.000350075 0.000357307 1.32511e-06 0.0178646 -2.46806e-06 -2.46806e-06 1196.96 213 1 
0.000367309 0.000351544 1.42857e-06 0.0175766 -1.67496e-06 -1.67496e-06 1179.06 214 1 
0.000390328 0.000347325 8.56435e-05 0.0173677 1.04307e-06 1.04307e-06 1173.72 215 1 
5.49643e-05 0.000349129 1.73016e-06 0.0174502 4.64932e-06 4.64932e-06 1175.66 216 1 
8.6767e-05 0.000360083 5.30236e-06 0.018009 1.3752e-06 1.3752e-06 1171.67 217 1 
0.000115682 0.000350721 1.6804e-06 0.0175332 1.86502e-06 1.86502e-06 1171.46 218 1 
0.000132364 0.000348431 1.81277e-06 0.0174268 -1.52743e-06 -1.52743e-06 1184.02 219 1 
0.00014892 0.000358053 4.6554e-06 0.0179039 4.46068e-06 4.46068e-06 1195.27 220 1 
0.000177629 0.000347888 3.40904e-06 0.0173984 -4.06055e-06 -4.06055e-06 1189.35 221 1 
0.00021327 0.000347259 8.21156e-05 0.0173526 4.29199e-06 4.29199e-06 1158.51 222 1 
0.00023858 0.000353007 5.65248e-06 0.0176509 -5.25514e-07 -5.25514e-07 1138.2 223 1 
0.000258828 0.000357018 1.04948e-05 0.0178555 -3.39235e-06 -3.39235e-06 1155.15 224 1 
0.000271831 0.000339208 3.72216e-06 0.0169622 1.73091e-06 1.73091e-06 1174.09 225 1 
0.000339829 0.000365032 8.9957e-05 0.018249 3.21626e-06 3.21626e-06 1195.33 226 1 
0.000393677 0.000383679 1.15829e-05 0.0191858 2.03903e-06 2.03903e-06 1209.5 227 1 
0.000397401 0.000376596 4.70002e-06 0.0188322 2.42735e-06 2.42735e-06 1216.5 228 1 
5.85107e-05 0.000375539 7.94962e-05 0.0187785 3.32325e-06 3.32325e-06 1181.51 229 1 
8.99013e-05 0.00037712 1.63879e-05 0.0188573 -5.24033e-07 -5.24033e-07 1176.87 230 1 
0.000110125 0.000376107 6.95774e-06 0.018796 7.45489e-06 7.45489e-06 1184.71 231 1 
0.000119295 0.000375207 8.98138e-05 0.0187667 -2.39301e-06 -2.39301e-06 1182.2 232 1 
0.000148952 0.000369875 1.85461e-05 0.0184992 -6.28607e-06 -6.28607e-06 1185.7 233 1 
0.000187161 0.000378994 4.82065e-06 0.0189514 -1.46487e-06 -1.46487e-06 1160.48 234 1 
0.000208564 0.00037951 8.62598e-06 0.0189777 -8.27377e-07 -8.27377e-07 1153.86 235 1 
0.000237271 0.000379131 8.88108e-05 0.0189606 -3.87392e-06 -3.87392e-06 1192.97 236 1 
0.00025729 0.000379633 3.90676e-07 0.0189817 -1.88063e-06 -1.88063e-06 1201.2 237 1 
0.000286514 0.000382665 8.16035e-05 0.0191362 -3.20229e-07 -3.20229e-07 1156.67 238 1 
0.000289985 0.000369036 1.14002e-05 0.0184502 -3.9608e-07 -3.9608e-07 1163.33 239 1 
0.000337827 0.000376809 5.89173e-06 0.0188409 2.84315e-06 2.84315e-06 1179.1 240 1 
0.000405929 0.00040837 7.6565e-05 0.020421 -1.32845e-06 -1.32845e-06 1181.77 241 1 
0.000401604 0.000393918 8.51551e-05 0.0196836 2.25692e-06 2.25692e-06 1189.26 242 1 
8.19635e-05 0.000400786 3.31593e-07 0.0200396 9.509e-07 9.509e-07 1178.01 243 1 
0.000118298 0.000403731 1.08713e-05 0.020191 1.28025e-06 1.28025e-06 1164.54 244 1 
0.000137544 0.000408404 7.58721e-05 0.0204139 2.01649e-06 2.01649e-06 1154.71 245 1 
0.000147098 0.000401245 8.85444e-05 0.0200611 -1.46549e-06 -1.46549e-06 1159.19 246 1 
0.000168735 0.000396339 8.90384e-05 0.0198195 -1.22257e-06 -1.22257e-06 1161.49 247 1 
0.00022122 0.000409288 8.7518e-05 0.0204693 -3.43501e-06 -3.43501e-06 1175.87 248 1 
0.000226424 0.000397484 2.57881e-06 0.0198789 -2.23026e-06 -2.23026e-06 1184.89 249 1 
0.00024751 0.00039816 8.8076e-05 0.0199111 -9.07824e-07 -9.07824e-07 1202.79 250 1 
0.000261124 0.00040132 4.94063e-06 0.0200625 9.71959e-07 9.71959e-07 1206.09 251 1 
0.000307741 0.000400004 1.9056e-06 0.0199948 5.77563e-06 5.77563e-06 1163.32 252 1 
0.000333511 0.000404003 1.34667e-05 0.0201991 -1.30475e-06 -1.30475e-06 1176.11 253 1 
0.000357176 0.000408687 6.80614e-06 0.0204348 -8.83007e-07 -8.83007e-07 1149.95 254 1 
0.000383976 0.000410182 2.26862e-06 0.0205108 -1.71017e-06 -1.71017e-06 1173.79 255 1 
8.59875e-05 0.00042324 1.16316e-05 0.021156 3.08692e-06 3.08692e-06 1171.22 256 1 
9.44798e-05 0.000414845 3.74924e-06 0.0207395 1.41636e-06 1.41636e-06 1180.46 257 1 
0.000119916 0.000418388 5.21785e-06 0.0209224 2.66073e-06 2.66073e-06 1158.01 258 1 
0.000172139 0.00043416 8.88681e-05 0.0217095 -2.92365e-07 -2.92365e-07 1185.08 259 1 
0.000172479 0.000427485 1.48157e-06 0.0213703 -1.34984e-06 -1.34984e-06 1180.41 260 1 
0.000203997 0.000424354 8.97054e-05 0.0212176 2.88399e-06 2.88399e-06 1167.85 261 1 
0.000227487 0.000423757 1.1571e-05 0.0211911 -1.6355e-06 -1.6355e-06 1189.11 262 1 
0.000253639 0.000422767 7.21232e-06 0.0211393 -4.08024e-07 -4.08024e-07 1200.42 263 1 
0.000278691 0.000428211 1.05655e-05 0.0214156 -6.29835e-06 -6.29835e-06 1194.18 264 1 
0.000312412 0.000441552 8.73475e-05 0.0220752 -3.16624e-06 -3.16624e-06 1171.39 265 1 
0.000302296 0.000416656 8.80328e-05 0.0208397 -4.43865e-06 -4.43865e-06 1163.12 266 1 
0.000344813 0.000423341 1.17893e-06 0.0211715 -4.78449e-06 -4.78449e-06 1173.14 267 1 
0.000379101 0.000431285 1.50109e-06 0.0215631 6.64212e-06 6.64212e-06 1197.06 268 1 
0.000398863 0.00043144 4.22425e-06 0.0215781 -4.93262e-07 -4.93262e-07 1180.04 269 1 
6.55681e-05 0.000425629 8.47299e-05 0.0212769 1.44641e-06 1.44641e-06 1179.48 270 1 
0.000123065 0.000450959 7.46881e-06 0.0225515 -7.74141e-06 -7.74141e-06 1147.18 271 1 
0.000147743 0.000445373 5.00502e-06 0.0222668 1.10774e-06 1.10774e-06 1161.5 272 1 
0.000178967 0.000454523 7.70703e-06 0.0227213 1.84034e-06 1.84034e-06 1191.79 273 1 
0.00018294 0.000441929 9.30665e-07 0.0221016 -5.16193e-06 -5.16193e-06 1190.72 274 1 
0.00023658 0.000454761 1.62925e-05 0.0227387 1.96967e-07 1.96967e-07 1186.99 275 1 
0.000236403 0.000445088 8.70055e-07 0.022256 -3.94063e-06 -3.94063e-06 1181.29 276 1 
0.000281861 0.000449505 7.97684e-06 0.0224803 1.25577e-07 1.25577e-07 1172.46 277 1 
0.000309472 0.000458684 2.59557e-06 0.0229376 -3.80058e-07 -3.80058e-07 1157.56 278 1 
0.000337974 0.000462633 7.78607e-05 0.0231324 -3.25822e-06 -3.25822e-06 1168.03 279 1 
0.000343923 0.000446763 8.98912e-06 0.0223323 -2.28862e-06 -2.28862e-06 1180.5 280 1 
0.000382621 0.000446958 8.05848e-05 0.0223449 3.42201e-06 3.42201e-06 1184.45 281 1 
0.000374762 0.000440153 4.17027e-06 0.0220057 -1.38663e-06 -1.38663e-06 1202.41 282 1 
0.000402506 0.000436726 7.23036e-06 0.0218344 5.34186e-06 5.34186e-06 1176.94 283 1 
8.13809e-05 0.00044463 1.08815e-05 0.0222315 1.37181e-06 1.37181e-06 1185.22 284 1 
8.59982e-05 0.000451133 9.93818e-06 0.0225603 -3.49403e-06 -3.49403e-06 1186.93 285 1 
9.97638e-05 1.18111e-05 4.16463e-05 0.000590842 6.95293e-07 6.95293e-07 1203.19 286 1 
0.000456316 0.000899501 2.83468e-05 0.0449769 5.02091e-06 5.02091e-06 1236 287 1 
0.000212241 0.000881834 2.6913e-05 0.0440986 -3.74518e-06 -3.74518e-06 1218.08 288 1 
0.000230605 0.000878817 3.19785e-05 0.0439429 9.08802e-07 9.08802e-07 1211.16 289 1 
0.000188116 7.88868e-06 3.66142e-05 0.000400729 -2.627e-06 -2.627e-06 1122.79 290 1 
0.000238892 8.41685e-06 2.45777e-05 0.000418001 2.02951e-06 2.02951e-06 1192.63 291 1 
0.000235008 1.94613e-05 2.79333e-05 0.000972978 -2.67002e-06 -2.67002e-06 1192.33 292 1 
0.000331783 0.000893324 2.89682e-05 0.0446631 -1.16538e-06 -1.16538e-06 1129.38 293 1 
0.000272096 0.000899968 2.5905e-05 0.0450002 -6.25665e-07 -6.25665e-07 1252.47 294 1 
0.000376567 0.000892511 2.49948e-05 0.0446197 3.84949e-06 3.84949e-06 1203.25 295 1 
0.000346345 1.34574e-05 2.87795e-05 0.000674527 -6.89551e-07 -6.89551e-07 1206.09 296 1 
1.4183e-05 2.12991e-05 2.95406e-05 0.00106348 2.08102e-07 2.08102e-07 1181.08 297 1 
0.000447145 0.000884407 3.21386e-05 0.0442242 -4.3122e-06 -4.3122e-06 1230.62 298 1 
0.000478257 0.000890827 2.90271e-05 0.0445391 -1.65976e-06 -1.65976e-06 1182.46 299 1 
0.000130476 0.000891043 2.88107e-05 0.0445539 2.79994e-06 2.79994e-06 1155.54 300 1 
8.67143e-05 2.84731e-05 3.261e-05 0.00142125 1.8254e-06 1.8254e-06 1183.52 301 1 
0.000107061 3.31573e-05 2.2543e-05 0.00165931 2.14261e-06 2.14261e-06 1179.54 302 1 
0.000142986 3.13027e-05 2.99509e-05 0.00157558 -9.05822e-06 -9.05822e-06 1224.6 303 1 
0.000167478 3.74761e-05 2.99876e-05 0.00186818 1.93488e-07 1.93488e-07 1224.18 304 1 
0.000190914 3.08241e-05 1.81375e-05 0.00154235 2.04086e-07 2.04086e-07 1176.4 305 1 
0.000214025 2.94349e-05 2.05411e-05 0.00146799 3.52011e-06 3.52011e-06 1188.19 306 1 
0.0002411 4.28952e-05 3.37325e-05 0.00214635 2.1747e-06 2.1747e-06 1185.93 307 1 
0.000255193 3.62607e-05 2.07724e-05 0.00180629 8.39684e-06 8.39684e-06 1173.76 308 1 
0.000276031 3.34937e-05 3.23228e-05 0.00167603 -2.65119e-06 -2.65119e-06 1160.4 309 1 
0.000308763 2.57001e-05 2.29878e-05 0.00129048 -6.56076e-06 -6.56076e-06 1217.93 310 1 
0.000320242 3.53421e-05 3.44022e-05 0.00176765 2.03358e-06 2.03358e-06 1221.94 311 1 
0.000353064 4.26565e-05 3.72541e-05 0.00213335 1.69029e-06 1.69029e-06 1219.77 312 1 
1.81514e-05 4.31441e-05 2.54653e-05 0.00215578 -9.81089e-07 -9.81089e-07 1218.88 313 1 
6.04403e-05 3.52094e-05 2.32137e-05 0.00175893 2.71498e-06 2.71498e-06 1198.91 314 1 
7.37142e-05 4.71267e-05 2.10214e-05 0.00236002 -4.26956e-06 -4.26956e-06 1203.16 315 1 
0.000107957 5.04772e-05 3.69778e-05 0.00251758 2.78761e-06 2.78761e-06 1200.36 316 1 
0.000136796 5.85341e-05 3.3503e-05 0.00291773 5.55067e-06 5.55067e-06 1204.78 317 1 
0.000165289 5.18017e-05 3.08417e-05 0.0025999 -3.94245e-06 -3.94245e-06 1205.39 318 1 
0.000194409 6.48714e-05 2.56645e-05 0.00324914 -2.93816e-06 -2.93816e-06 1161.87 319 1 
0.000214019 6.19076e-05 2.47756e-05 0.00309682 4.05391e-06 4.05391e-06 1170.88 320 1 
0.000226082 4.92575e-05 3.43102e-05 0.00246307 1.1798e-07 1.1798e-07 1193.2 321 1 
0.000281032 7.11658e-05 2.89603e-05 0.00355592 2.73843e-07 2.73843e-07 1203.38 322 1 
0.000281304 5.82915e-05 2.93033e-05 0.00291454 -2.45178e-06 -2.45178e-06 1195.75 323 1 
0.000311683 5.31855e-05 2.65042e-05 0.00266076 1.1252e-07 1.1252e-07 1205.34 324 1 
0.000343318 5.14137e-05 2.47359e-05 0.00256163 2.76798e-06 2.76798e-06 1224.3 325 1 
0.000368219 6.75203e-05 2.0787e-05 0.00338015 -6.48623e-06 -6.48623e-06 1208.31 326 1 
1.96205e-05 5.99401e-05 3.28993e-05 0.00300339 -5.90446e-06 -5.90446e-06 1216.31 327 1 
4.15833e-05 5.66043e-05 3.3526e-05 0.00283223 -7.10905e-07 -7.10905e-07 1212.43 328 1 
7.16205e-05 6.42452e-05 1.63928e-05 0.0032082 4.03524e-06 4.03524e-06 1208.07 329 1 
9.99685e-05 6.36363e-05 2.58732e-05 0.00318734 -5.15902e-06 -5.15902e-06 1192.32 330 1 
0.000159314 7.53266e-05 3.62908e-05 0.00376903 -2.03033e-06 -2.03033e-06 1197.31 331 1 
0.000201811 9.33209e-05 3.11732e-05 0.00465995 2.02463e-06 2.02463e-06 1218.98 332 1 
0.000222673 8.55702e-05 1.82432e-05 0.00427372 1.46973e-06 1.46973e-06 1195.85 333 1 
0.000218174 7.9909e-05 3.73417e-05 0.00399863 3.03743e-06 3.03743e-06 1217.02 334 1 
0.000259286 8.05913e-05 2.47337e-05 0.00403024 1.72763e-06 1.72763e-06 1185.4 335 1 
0.000284801 8.87217e-05 2.59458e-05 0.00443545 2.78616e-06 2.78616e-06 1194.09 336 1 
0.000302074 8.25624e-05 1.95612e-05 0.0041299 2.16728e-07 2.16728e-07 1181.58 337 1 
0.000328733 8.21639e-05 2.09471e-05 0.00411179 -4.32607e-06 -4.32607e-06 1192.72 338 1 
0.000347715 8.54548e-05 3.13073e-05 0.0042621 -8.32292e-07 -8.32292e-07 1208.4 339 1 
2.96775e-05 9.15576e-05 3.64053e-05 0.00458175 -2.22677e-06 -2.22677e-06 1169.22 340 1 
4.02691e-05 9.06277e-05 1.41022e-05 0.00453257 -3.89308e-06 -3.89308e-06 1202.53 341 1 
6.25063e-05 8.23194e-05 3.01758e-05 0.00410955 3.29097e-07 3.29097e-07 1203.26 342 1 
9.22509e-05 8.06679e-05 2.73086e-05 0.00403127 -4.10324e-06 -4.10324e-06 1186.98 343 1 
0.000111603 9.05405e-05 2.98993e-05 0.00452113 3.19585e-06 3.19585e-06 1193.77 344 1 
0.00012869 8.34521e-05 2.36004e-05 0.0041737 -3.32662e-06 -3.32662e-06 1191.81 345 1 
0.000183297 9.24651e-05 3.93209e-05 0.00462259 2.66589e-06 2.66589e-06 1189.17 346 1 
0.00023149 0.000110573 2.81809e-05 0.00553072 -2.04487e-06 -2.04487e-06 1183.47 347 1 
0.000248092 0.000101975 2.5951e-05 0.00510017 -5.73363e-06 -5.73363e-06 1182.38 348 1 