ITEM: TIMESTEP
100
ITEM: NUMBER OF ATOMS
2220
ITEM: BOX BOUNDS xy xz yz pp pp pp
0 0.000384077 2.34766e-05
0 0.0009015 0
0 9.015e-05 0
ITEM: ATOMS x y z vx vy vy c_rho_peratom id type 
8.50653e-06 5.73317e-06 8.82716e-05 0.00277816 0.0021202 0.0021202 1325.43 1 1 
7.43743e-05 0.000895746 8.89145e-05 0.0477907 0.0107739 0.0107739 1303.76 2 1 
5.48651e-05 1.15633e-05 1.75584e-06 0.00751994 0.0285968 0.0285968 1294.37 3 1 
0.000111952 0.00089756 8.45997e-05 0.0326039 -0.00448901 -0.00448901 1310.49 4 1 
0.000135432 0.000901104 8.71514e-05 0.0470883 -0.0016173 -0.0016173 1346.43 5 1 
0.000134439 4.52909e-06 8.98261e-05 -0.00956874 -0.0214107 -0.0214107 1327.56 6 1 
0.000158318 1.51017e-06 5.97824e-06 -0.00953694 0.00303791 0.00303791 1328.43 7 1 
0.00018166 8.86521e-07 5.10051e-07 0.0105288 0.0127467 0.0127467 1309.93 8 1 
0.000214607 2.01631e-06 3.89517e-06 -0.000797204 0.00542661 0.00542661 1305.92 9 1 
0.000228633 1.18731e-05 4.69588e-07 0.00987228 0.00409389 0.00409389 1294.07 10 1 
0.000255304 5.94928e-06 1.2169e-06 0.00458944 -0.00663945 -0.00663945 1332.94 11 1 
0.000276543 3.16153e-06 7.12074e-06 -0.0203641 0.00226941 0.00226941 1291.17 12 1 
0.000330418 0.000900479 2.83003e-06 0.0383385 -0.00451866 -0.00451866 1298.33 13 1 
0.000322365 6.66761e-06 5.54244e-06 0.0275669 -0.013314 -0.013314 1284.85 14 1 
2.43731e-05 0.000899408 7.41646e-06 0.0454542 -0.0070731 -0.0070731 1337.35 15 1 
1.313e-05 3.83869e-05 3.00424e-06 -0.030421 -0.0100532 -0.0100532 1233.89 16 1 
3.37588e-05 3.30473e-05 3.36943e-06 0.0116542 -0.0375062 -0.0375062 1248.36 17 1 
5.77147e-05 3.24079e-05 8.75915e-05 -0.0167013 0.00162507 0.00162507 1257.65 18 1 
8.17137e-05 3.6185e-05 8.88592e-05 0.0142413 -0.0066536 -0.0066536 1247.86 19 1 
0.000104284 3.73918e-05 3.77655e-06 0.0105866 0.0245851 0.0245851 1259.42 20 1 
0.000126631 3.70688e-05 8.7311e-05 0.0257916 -0.0148071 -0.0148071 1228.92 21 1 
0.000151955 3.38402e-05 1.3863e-06 -0.0238497 0.00338964 0.00338964 1215.48 22 1 
0.000174852 3.53179e-05 1.5976e-07 0.0284662 -0.0127677 -0.0127677 1222.68 23 1 
0.000205683 3.60077e-05 8.57005e-06 -0.00440051 0.00434133 0.00434133 1245.95 24 1 
0.000227238 4.0836e-05 2.57643e-07 0.0189886 0.00324486 0.00324486 1254.37 25 1 
0.000257882 3.32017e-05 4.66957e-06 -0.00289613 -0.00501751 -0.00501751 1247.47 26 1 
0.000280777 3.83602e-05 9.52811e-06 -0.0190745 0.0116461 0.0116461 1254.39 27 1 
0.000301586 3.66733e-05 1.67059e-07 -0.0119792 0.0159765 0.0159765 1253.44 28 1 
0.00032035 3.58475e-05 5.73057e-06 0.00599439 -0.00679099 -0.00679099 1246.74 29 1 
0.000346631 3.65627e-05 2.9639e-06 -0.00106119 -0.00199469 -0.00199469 1227.96 30 1 
1.36009e-05 5.46694e-05 4.0267e-06 -0.0101708 0.00196831 0.00196831 1251.33 31 1 
3.80773e-05 5.27397e-05 2.441e-06 0.0306232 -0.00623821 -0.00623821 1264.5 32 1 
5.40361e-05 5.27233e-05 8.74312e-05 0.0113246 0.0262759 0.0262759 1291.51 33 1 
8.10204e-05 4.99217e-05 5.14485e-06 -0.0118445 -0.0159336 -0.0159336 1265.59 34 1 
0.000103469 5.40892e-05 8.96976e-05 -0.00894264 0.00399068 0.00399068 1297 35 1 
0.000131728 5.65441e-05 1.02849e-05 0.0160693 0.0266015 0.0266015 1235.93 36 1 
0.000154738 5.68968e-05 5.57546e-06 0.0241397 0.0174453 0.0174453 1253.73 37 1 
0.00017751 4.89409e-05 4.42545e-06 0.0138149 -0.0230156 -0.0230156 1263.5 38 1 
0.000201268 5.38772e-05 7.2959e-07 -0.00939906 -0.00976752 -0.00976752 1282.86 39 1 
0.000227602 5.45063e-05 6.66832e-06 -0.00287216 -0.00270949 -0.00270949 1283.03 40 1 
0.000252339 5.55441e-05 6.23827e-06 -0.00653524 -0.0058633 -0.0058633 1271.21 41 1 
0.000276415 5.12411e-05 8.8363e-05 0.00332309 -0.00268314 -0.00268314 1284.66 42 1 
0.000301603 4.60925e-05 1.77802e-06 -0.0278582 -0.0052455 -0.0052455 1269.74 43 1 
0.000322381 5.61134e-05 1.66183e-06 0.0145189 0.00523443 0.00523443 1277.66 44 1 
0.000345742 5.63639e-05 3.7992e-06 0.00775621 0.00129808 0.00129808 1280.65 45 1 
9.13841e-06 7.99369e-05 3.20558e-07 -0.0248035 0.02028 0.02028 1247.8 46 1 
3.16228e-05 8.21061e-05 2.04884e-06 0.0066829 0.00130821 0.00130821 1238.26 47 1 
5.64188e-05 7.79033e-05 7.76494e-08 0.00228615 0.00357355 0.00357355 1247.06 48 1 
8.63586e-05 7.67807e-05 8.94282e-05 -0.00315894 0.00189564 0.00189564 1226.83 49 1 
0.00010632 7.90159e-05 6.87855e-06 0.0211178 0.0211182 0.0211182 1234.77 50 1 
0.000128679 7.73566e-05 8.39992e-05 -0.0195993 -0.00478414 -0.00478414 1208.53 51 1 
0.000153902 8.61099e-05 2.64066e-06 0.0215171 0.00413651 0.00413651 1215.55 52 1 
0.000180683 7.6774e-05 3.79503e-06 0.00905454 -0.00367787 -0.00367787 1238.17 53 1 
0.000209384 7.97689e-05 7.72832e-07 0.00795365 0.00230695 0.00230695 1231.48 54 1 
0.000222804 7.96446e-05 5.69822e-06 -0.0049711 -0.0259958 -0.0259958 1226.34 55 1 
0.00025418 8.03583e-05 8.89761e-05 0.0202406 0.0239251 0.0239251 1256.15 56 1 
0.000280852 8.0148e-05 3.85126e-06 0.0217531 -0.0035434 -0.0035434 1276.66 57 1 
0.000297951 8.28962e-05 8.87647e-05 0.00232607 -0.0158624 -0.0158624 1276.58 58 1 
0.0003226 7.92357e-05 8.79444e-05 0.00557535 0.0168559 0.0168559 1252.76 59 1 
0.00034721 8.11463e-05 1.35844e-07 -0.0196892 0.00705854 0.00705854 1266.17 60 1 
0.000362607 0.00010482 5.6088e-06 -0.00342162 -0.00965462 -0.00965462 1278.87 61 1 
3.65715e-05 0.000104856 8.40467e-07 0.00636 -0.00489964 -0.00489964 1260.19 62 1 
5.54712e-05 0.00010199 2.29425e-06 0.0208802 -0.0165878 -0.0165878 1267 63 1 
8.09808e-05 0.00010132 3.3101e-06 0.011586 0.0189452 0.0189452 1221.22 64 1 
0.000107122 0.000106453 5.31377e-06 0.014928 -0.0108219 -0.0108219 1216.12 65 1 
0.000134498 0.000103387 5.98544e-06 -0.00854517 -0.00529641 -0.00529641 1195.59 66 1 
0.000161036 0.000100301 8.4416e-08 0.0159444 -0.0111943 -0.0111943 1191.31 67 1 
0.000183732 0.000105231 8.83053e-05 -0.00368379 0.0139381 0.0139381 1190.01 68 1 
0.000197916 0.000101807 8.54818e-07 0.0172512 -0.0107696 -0.0107696 1188.95 69 1 
0.000228938 9.85842e-05 8.90795e-05 0.0137813 -0.00444353 -0.00444353 1206.73 70 1 
0.000259793 0.000101358 3.79732e-06 -0.00373927 0.0256444 0.0256444 1245.56 71 1 
0.000274005 0.000100475 1.70972e-06 0.00342742 0.0185694 0.0185694 1267.19 72 1 
0.000305941 0.000103167 2.14873e-06 -0.00874991 -0.00332098 -0.00332098 1269.72 73 1 
0.000324874 0.000101933 2.09886e-07 -0.00137644 0.0087205 0.0087205 1261.21 74 1 
0.000344521 0.000102232 6.29343e-06 -0.0197956 -0.0102586 -0.0102586 1276.53 75 1 
4.37165e-06 0.00012146 4.79961e-06 -0.00408443 -0.00950029 -0.00950029 1286.53 76 1 
3.64646e-05 0.000125886 2.67086e-06 0.00946519 0.00416705 0.00416705 1236.42 77 1 
5.92845e-05 0.000125377 4.78646e-06 0.0104407 -0.00012224 -0.00012224 1245.14 78 1 
8.6293e-05 0.000126663 8.90137e-05 -0.00172568 0.00146954 0.00146954 1233.8 79 1 
0.000103571 0.000127809 3.87351e-06 0.00459949 0.00819734 0.00819734 1219.46 80 1 
0.000130138 0.000127068 4.7317e-06 -0.00215653 0.0176353 0.0176353 1186.37 81 1 
0.000154248 0.000125953 1.15216e-06 0.0209284 0.0134015 0.0134015 1166.64 82 1 
0.000184411 0.000121849 2.3869e-06 0.010207 -0.0053714 -0.0053714 1159.35 83 1 
0.000205716 0.00012659 7.20257e-06 0.016969 0.011771 0.011771 1164.68 84 1 
0.000227171 0.00012682 9.05521e-06 0.0264276 -0.0111089 -0.0111089 1185.43 85 1 
0.000251255 0.000128774 8.77432e-05 0.0156452 -0.00446755 -0.00446755 1210.66 86 1 
0.000282319 0.000124362 3.62495e-06 -0.0232824 0.0114954 0.0114954 1218.26 87 1 
0.000302391 0.000124214 8.87885e-05 -0.010617 0.0121519 0.0121519 1236.13 88 1 
0.000331651 0.000126842 8.63624e-05 -0.0115946 0.00749471 0.00749471 1228.19 89 1 
0.000361821 0.000130734 3.23116e-06 0.0100665 -0.0176017 -0.0176017 1283.67 90 1 
1.39147e-05 0.000146034 4.07129e-06 -0.00364986 -0.0164684 -0.0164684 1246.04 91 1 
4.00065e-05 0.000149775 1.91256e-06 0.0155562 0.0134451 0.0134451 1194.21 92 1 
5.2984e-05 0.000153669 8.60749e-05 0.0256367 -0.0109274 -0.0109274 1204.47 93 1 
8.70285e-05 0.000153947 3.15531e-06 0.0211649 -0.0166377 -0.0166377 1217.83 94 1 
0.000113651 0.000147585 2.65949e-06 0.00835601 0.0128138 0.0128138 1191.66 95 1 
0.000140527 0.000149251 2.13857e-06 -0.0061501 0.00684827 0.00684827 1180.13 96 1 
0.000153327 0.000154662 8.91698e-05 0.00960646 -0.0160277 -0.0160277 1183.93 97 1 
0.000181572 0.000147361 3.65659e-06 0.031917 0.0257054 0.0257054 1136.6 98 1 
0.000206071 0.000148711 8.87792e-05 -0.00342637 0.00570534 0.00570534 1177.85 99 1 
0.000233978 0.000150614 2.98191e-06 0.00639134 -0.0035078 -0.0035078 1180.81 100 1 
0.000258196 0.000146859 8.79783e-05 0.0157514 -0.0167223 -0.0167223 1194.58 101 1 
0.000278507 0.000150886 3.03804e-06 0.00234703 0.00894016 0.00894016 1216.25 102 1 
0.000302536 0.000150278 9.09992e-07 0.00257952 0.00737114 0.00737114 1227.45 103 1 
0.000326351 0.000151688 8.9586e-05 0.0189447 0.00745034 0.00745034 1179.67 104 1 
0.000352938 0.000149671 4.28082e-06 -0.00196965 0.0165907 0.0165907 1242.44 105 1 
1.01714e-05 0.000179305 9.10075e-06 0.00800923 -0.00118176 -0.00118176 1268.47 106 1 
3.59743e-05 0.000179086 8.92174e-05 0.0189172 0.0048122 0.0048122 1221.59 107 1 
6.33969e-05 0.000174054 4.21575e-06 0.00844125 0.0311941 0.0311941 1245.13 108 1 
8.80118e-05 0.00016908 8.86197e-05 0.0033397 0.00327851 0.00327851 1222.31 109 1 
0.00011076 0.000179148 4.43204e-06 0.00910601 -0.00852153 -0.00852153 1188.47 110 1 
0.000131488 0.000179688 5.62803e-06 0.00191549 0.0132191 0.0132191 1178.08 111 1 
0.000162543 0.000176991 3.81758e-06 0.0342806 -0.00717206 -0.00717206 1179.93 112 1 
0.000184865 0.000174187 8.97923e-05 -0.00323252 -0.0133084 -0.0133084 1176.74 113 1 
0.000206162 0.000170174 8.80473e-05 0.00459845 -0.0264877 -0.0264877 1187.04 114 1 
0.000233273 0.000173672 1.09826e-06 0.0279345 0.00686894 0.00686894 1158.79 115 1 
0.000255238 0.000168023 1.95618e-06 0.0168085 -0.00401376 -0.00401376 1158.63 116 1 
0.000285619 0.000172371 9.09394e-06 0.000883415 0.0152266 0.0152266 1203.04 117 1 
0.000302234 0.000176737 8.86416e-05 0.0194819 0.0116887 0.0116887 1195.31 118 1 
0.000328133 0.000179753 3.23001e-06 -0.00404473 0.0135073 0.0135073 1170.32 119 1 
0.000347328 0.000174023 5.81265e-06 0.028809 0.0111503 0.0111503 1215.97 120 1 
1.43131e-05 0.000197546 8.91332e-05 0.00322309 0.00321023 0.00321023 1280.69 121 1 
3.2513e-05 0.000197288 3.98386e-06 -0.0106903 -0.00169999 -0.00169999 1237.58 122 1 
6.20207e-05 0.000199037 8.98288e-05 -0.00264026 0.010581 0.010581 1251.78 123 1 
8.84495e-05 0.000202423 8.74089e-05 0.0155143 0.0116611 0.0116611 1204.1 124 1 
0.000109211 0.000205457 7.76783e-06 0.0100839 0.0113815 0.0113815 1145.64 125 1 
0.000134438 0.000195797 2.19999e-06 0.00547731 0.00660945 0.00660945 1174.62 126 1 
0.000160965 0.000202288 8.92182e-05 0.0117345 0.0175837 0.0175837 1180.43 127 1 
0.000183859 0.000194234 8.8977e-05 0.0192408 0.0026398 0.0026398 1185.58 128 1 
0.000210672 0.000196047 4.85489e-06 -0.00249615 0.000201159 0.000201159 1157.93 129 1 
0.000231122 0.00019935 2.72982e-06 0.00939167 -0.0122531 -0.0122531 1144.34 130 1 
0.000257531 0.00020542 8.89957e-05 -0.00087379 -0.0029059 -0.0029059 1160.28 131 1 
0.000281773 0.000198735 8.51822e-05 -0.000996955 0.0079875 0.0079875 1172.42 132 1 
0.000309489 0.000203569 1.29897e-07 0.00245755 -0.00151515 -0.00151515 1170.72 133 1 
0.000333146 0.000204142 4.7066e-06 -0.00718434 -0.00962346 -0.00962346 1203.8 134 1 
0.000359893 0.000201545 8.95966e-05 0.0132239 0.000152423 0.000152423 1297.6 135 1 
2.15614e-05 0.000226023 2.66458e-06 0.0327632 0.0139985 0.0139985 1230.95 136 1 
4.08861e-05 0.000228486 5.39039e-06 0.00638036 0.002181 0.002181 1204.85 137 1 
6.62805e-05 0.000220482 8.93418e-05 0.0157738 0.0135365 0.0135365 1239.88 138 1 
8.70113e-05 0.000226207 3.51937e-06 0.0211161 0.00018478 0.00018478 1183.3 139 1 
0.000115058 0.000229399 1.88938e-06 0.0190428 0.01584 0.01584 1156.44 140 1 
0.00014009 0.000222628 8.902e-05 -0.0150905 0.00683017 0.00683017 1171.32 141 1 
0.000162518 0.00022338 2.92017e-06 0.000534545 0.0183198 0.0183198 1136.08 142 1 
0.000193216 0.00022559 6.72388e-06 -0.015991 -0.00919271 -0.00919271 1115.56 143 1 
0.000206836 0.000224232 6.19807e-08 0.0269863 0.00284103 0.00284103 1138.86 144 1 
0.000235457 0.000218813 8.77259e-05 -0.0038818 0.0157937 0.0157937 1146.83 145 1 
0.000261441 0.000227899 1.52306e-06 0.00227052 0.00905642 0.00905642 1171.77 146 1 
0.000285779 0.000223393 4.5669e-06 0.00808335 -0.0118294 -0.0118294 1185.93 147 1 
0.000310587 0.00022972 3.15595e-06 0.0107187 0.00891044 0.00891044 1167.48 148 1 
0.000332579 0.000222488 4.34212e-06 0.00732333 -0.00702191 -0.00702191 1194.81 149 1 
0.0003573 0.000226137 5.49925e-06 0.00762555 -0.0075629 -0.0075629 1249.61 150 1 
1.29469e-05 0.000250154 8.8006e-05 0.0149935 -0.0192991 -0.0192991 1231.83 151 1 
4.26457e-05 0.000251888 8.94252e-05 0.0370481 -0.0017225 -0.0017225 1190.07 152 1 
6.80109e-05 0.000251731 8.83025e-05 0.00713511 -0.00694475 -0.00694475 1199.2 153 1 
9.2891e-05 0.000248015 8.77559e-05 0.02337 0.0040029 0.0040029 1165.95 154 1 
0.000114114 0.000249217 7.59579e-08 0.0248628 0.00451836 0.00451836 1169.74 155 1 
0.000142278 0.000250115 4.74236e-06 0.00696136 -0.00330416 -0.00330416 1163.5 156 1 
0.000159344 0.000252762 8.9842e-05 0.00111568 -0.00301345 -0.00301345 1126.26 157 1 
0.00018389 0.000256276 1.24429e-06 0.000524318 -0.0217993 -0.0217993 1094.92 158 1 
0.000213127 0.000247158 2.05706e-06 0.0334948 -0.00552703 -0.00552703 1125.68 159 1 
0.000235626 0.00024749 8.54021e-05 0.0249855 -0.00968799 -0.00968799 1124.52 160 1 
0.000265787 0.000250637 1.21501e-06 0.00465202 -0.00690345 -0.00690345 1158.28 161 1 
0.000288741 0.000257567 8.74335e-05 -0.000900877 -0.00385669 -0.00385669 1200.57 162 1 
0.000314515 0.000252569 7.32474e-06 0.0352287 0.0070887 0.0070887 1190.81 163 1 
0.000331556 0.000253354 5.08433e-06 -2.50259e-05 -0.0135176 -0.0135176 1195.19 164 1 
0.000361137 0.000254213 8.9447e-05 0.000617356 0.0189624 0.0189624 1235.22 165 1 
1.69753e-05 0.000278902 8.64999e-05 0.0169606 0.0147794 0.0147794 1217.56 166 1 
4.89384e-05 0.000269441 8.88744e-05 0.00342042 0.0126271 0.0126271 1158.17 167 1 
6.50526e-05 0.000273815 6.61353e-06 0.0036816 0.00229344 0.00229344 1158.85 168 1 
9.17948e-05 0.000267563 5.31151e-07 0.00797259 -0.030558 -0.030558 1132.42 169 1 
0.000114473 0.000276729 9.89198e-06 0.0239268 0.00993156 0.00993156 1123.38 170 1 
0.000135992 0.00027551 1.89481e-06 0.0330721 -0.0173085 -0.0173085 1150.45 171 1 
0.000164173 0.000272696 2.77085e-06 0.016125 0.0285576 0.0285576 1106.85 172 1 
0.000187389 0.000273546 3.28614e-06 0.00141042 0.0248509 0.0248509 1108.42 173 1 
0.000211922 0.000275481 8.88078e-05 0.0267003 -0.0174692 -0.0174692 1149.23 174 1 
0.000240051 0.000279514 6.78254e-07 0.00870033 0.000879207 0.000879207 1119.09 175 1 
0.00026346 0.000267688 1.04747e-05 0.0181685 -0.00910124 -0.00910124 1129.03 176 1 
0.000289558 0.000276746 8.82044e-05 0.0386357 0.0102541 0.0102541 1217.44 177 1 
0.000306085 0.000276028 8.60249e-05 -0.0075584 -0.00452993 -0.00452993 1245.27 178 1 
0.000333431 0.00027652 5.28942e-06 0.0304656 0.00534709 0.00534709 1213.44 179 1 
0.000356467 0.000276644 1.83137e-06 0.0109424 -0.00849164 -0.00849164 1227.48 180 1 
1.8798e-05 0.000298478 3.11154e-06 0.0248864 0.00017147 0.00017147 1211.52 181 1 
4.59749e-05 0.000299389 8.61871e-05 -0.00409593 0.0137529 0.0137529 1145.66 182 1 
6.65329e-05 0.000308595 5.86303e-06 0.0113807 -0.00855569 -0.00855569 1183.3 183 1 
9.07688e-05 0.000300431 1.84809e-06 0.000986814 -0.00295851 -0.00295851 1170.12 184 1 
0.000115173 0.000304925 3.15464e-06 0.015382 0.00331616 0.00331616 1174.94 185 1 
0.000134996 0.000299601 8.46037e-05 0.00844407 0.0133394 0.0133394 1171.31 186 1 
0.000158931 0.000299482 8.63388e-05 0.0130571 0.0069887 0.0069887 1164.6 187 1 
0.000186656 0.000298888 8.36262e-05 0.022944 -0.00881355 -0.00881355 1187.93 188 1 
0.000206639 0.000303082 3.3543e-06 0.0228851 -0.00693041 -0.00693041 1180.1 189 1 
0.000241057 0.000298953 4.7062e-06 -0.0219677 -0.030096 -0.030096 1136.55 190 1 
0.000263851 0.000300217 1.41304e-06 0.0332291 -0.01761 -0.01761 1139.7 191 1 
0.000289248 0.000304583 4.90635e-06 0.0158071 0.00396738 0.00396738 1181.82 192 1 
0.000311644 0.000301985 9.50892e-07 0.017928 0.000410451 0.000410451 1232.4 193 1 
0.000333605 0.000299593 1.31379e-06 0.019948 0.00131265 0.00131265 1188.77 194 1 
0.000365735 0.000301081 8.96746e-05 0.00872216 -0.00367605 -0.00367605 1227.75 195 1 
2.4005e-05 0.000320743 1.51961e-06 0.0139508 -0.00785849 -0.00785849 1206.59 196 1 
4.48523e-05 0.000329839 2.18409e-06 0.0187141 -0.0314431 -0.0314431 1177.62 197 1 
7.42582e-05 0.000320765 8.80681e-05 0.0204685 -0.0193714 -0.0193714 1234.59 198 1 
8.89436e-05 0.000324326 1.54306e-06 0.0283451 0.0136669 0.0136669 1229.06 199 1 
0.00012024 0.000322598 4.17405e-06 0.0243549 0.0114477 0.0114477 1198.39 200 1 
0.000140192 0.000329229 3.62222e-07 0.0304023 0.0120117 0.0120117 1166.36 201 1 
0.000163597 0.000325489 1.67662e-06 0.00332122 -0.0221355 -0.0221355 1142.68 202 1 
0.000195254 0.000323236 2.66631e-06 0.0207421 -0.0189629 -0.0189629 1151.33 203 1 
0.00021308 0.000322956 2.6564e-06 0.00715936 -0.0217544 -0.0217544 1166.42 204 1 
0.00023508 0.000326442 4.86214e-06 0.0114509 -0.00807533 -0.00807533 1134.65 205 1 
0.000265284 0.000322424 1.74851e-06 0.0160808 -0.00135241 -0.00135241 1119.31 206 1 
0.000290514 0.000324241 8.9898e-05 0.0131308 0.0170057 0.0170057 1189.54 207 1 
0.000311735 0.000330141 6.38475e-06 -0.0186121 -0.0128969 -0.0128969 1227.57 208 1 
0.00033594 0.000328097 8.80977e-05 0.0294904 0.00304073 0.00304073 1204.36 209 1 
0.000362635 0.000322086 2.08778e-06 0.0384076 -0.00561742 -0.00561742 1227.42 210 1 
2.27256e-05 0.000349055 9.50333e-07 0.0098919 -0.0027165 -0.0027165 1223.09 211 1 
4.88961e-05 0.000345011 1.91416e-07 0.0164852 0.0186116 0.0186116 1194.91 212 1 
6.60831e-05 0.000354506 3.71258e-06 0.0302069 0.00075237 0.00075237 1205.31 213 1 
9.61334e-05 0.000347924 5.82371e-06 0.0201324 0.0105109 0.0105109 1213.76 214 1 
0.000118106 0.00035178 8.95427e-05 -0.00400025 0.00649966 0.00649966 1195.97 215 1 
0.000146044 0.000347721 8.66163e-05 -0.0015828 0.0114911 0.0114911 1142.23 216 1 
0.000164377 0.000352098 4.25871e-06 0.0337108 0.00476852 0.00476852 1129.68 217 1 
0.000190477 0.000355159 5.78691e-06 0.0154971 0.0151608 0.0151608 1120.7 218 1 
0.000219447 0.000351949 8.74016e-05 0.00230493 -0.00215323 -0.00215323 1149.14 219 1 
0.000240057 0.000350201 4.34564e-06 0.0218297 -0.0030205 -0.0030205 1120.9 220 1 
0.000266779 0.000350793 5.21346e-06 0.0221045 0.00660468 0.00660468 1114.89 221 1 
0.000295868 0.00035224 7.40692e-07 0.0147155 0.00853138 0.00853138 1200.9 222 1 
0.000312538 0.000352358 4.16702e-06 -0.00338725 -0.0268749 -0.0268749 1219.31 223 1 
0.000341457 0.000348827 4.17611e-06 0.0293749 0.000821563 0.000821563 1193.12 224 1 
0.000364362 0.000347198 5.73606e-06 0.0158166 -0.0109464 -0.0109464 1234.28 225 1 
2.11706e-05 0.000374077 3.62776e-06 0.0253553 0.00138228 0.00138228 1224.97 226 1 
5.02178e-05 0.00037906 6.86721e-06 0.0174364 -0.0225916 -0.0225916 1172.01 227 1 
7.28058e-05 0.000378919 5.92875e-06 0.0196877 0.00543622 0.00543622 1199.24 228 1 
9.69766e-05 0.000371842 8.80549e-05 0.0365257 -0.00555445 -0.00555445 1221.94 229 1 
0.000119015 0.00037287 4.4324e-06 0.026773 -0.0153776 -0.0153776 1182.5 230 1 
0.000143671 0.00038235 4.86408e-06 -0.0048872 -0.0128164 -0.0128164 1143.27 231 1 
0.000168073 0.000375577 9.01e-05 0.0120581 -0.00842092 -0.00842092 1149.07 232 1 
0.000192107 0.000373576 6.91759e-06 0.0318621 -0.000867228 -0.000867228 1147.98 233 1 
0.00022215 0.000380281 8.73635e-05 0.028234 0.0217309 0.0217309 1180.68 234 1 
0.000240959 0.000376208 3.3888e-06 0.0362128 -0.00829102 -0.00829102 1159.7 235 1 
0.000266394 0.000374701 2.30407e-06 0.0328722 -0.0229953 -0.0229953 1171.48 236 1 
0.000294215 0.000374597 8.50493e-05 0.0260297 0.0128706 0.0128706 1212.77 237 1 
0.000316378 0.000379405 8.89169e-05 0.0275301 0.0173829 0.0173829 1191.25 238 1 
0.000336083 0.000370091 8.85081e-07 0.00604788 0.0162619 0.0162619 1175.56 239 1 
0.00036495 0.000376641 7.25724e-06 0.0114614 -0.00975211 -0.00975211 1220.77 240 1 
1.84628e-05 0.000397384 1.49879e-06 0.0188704 0.00752365 0.00752365 1243.53 241 1 
5.08127e-05 0.000397282 2.12993e-06 0.0297638 0.00702433 0.00702433 1158.42 242 1 
7.25828e-05 0.000392674 2.58106e-06 0.0334307 0.00223082 0.00223082 1194 243 1 
0.000101757 0.00040156 8.56689e-05 0.0454793 -0.00698383 -0.00698383 1186.5 244 1 
0.000118153 0.000404118 8.81626e-05 0.0274753 0.008247 0.008247 1180.17 245 1 
0.000142783 0.000396446 3.15871e-06 0.0317436 0.00618278 0.00618278 1161.95 246 1 
0.00017036 0.000400048 2.84731e-06 0.0195322 -0.00168852 -0.00168852 1147.53 247 1 
0.0002011 0.000398455 3.51514e-06 0.00698327 0.0137596 0.0137596 1167.46 248 1 
0.000218837 0.000400498 2.38503e-06 -0.0094823 0.00165218 0.00165218 1177.47 249 1 
0.000242568 0.000403214 8.64251e-05 0.014732 0.0157629 0.0157629 1153.6 250 1 
0.000269625 0.000399989 1.93488e-06 0.0461071 0.0172018 0.0172018 1191.1 251 1 
0.000293355 0.000399899 1.05771e-07 0.0246451 0.00111289 0.00111289 1221.04 252 1 
0.000317378 0.000400773 2.09218e-06 0.0339109 -0.0026958 -0.0026958 1164.18 253 1 
0.000340438 0.000400246 8.95617e-05 0.0292596 -0.0115948 -0.0115948 1175.23 254 1 
0.000362637 0.000400454 8.93959e-05 0.0324994 -0.00298983 -0.00298983 1245.59 255 1 
2.5577e-05 0.000424335 8.2587e-06 0.0378746 0.00811571 0.00811571 1226.5 256 1 
5.34698e-05 0.000424302 6.27633e-06 0.00838529 0.00232744 0.00232744 1164.77 257 1 
7.43987e-05 0.000424633 3.30389e-06 0.051027 0.00974542 0.00974542 1188.2 258 1 
9.67874e-05 0.000426661 4.70521e-07 0.00556002 0.0183746 0.0183746 1184.63 259 1 
0.000118871 0.000425922 2.19826e-06 0.00710912 0.0132235 0.0132235 1179.37 260 1 
0.000144863 0.000426361 3.00567e-06 0.0277388 -0.00291042 -0.00291042 1159.04 261 1 
0.000175679 0.000419237 8.86388e-05 0.0207866 -0.0106936 -0.0106936 1134.36 262 1 
0.000202463 0.000424864 2.24805e-06 0.0280766 -0.00858215 -0.00858215 1159.83 263 1 
0.000223165 0.00042725 8.59821e-05 0.0207231 -0.00143559 -0.00143559 1170.34 264 1 
0.000244802 0.000427936 1.39109e-06 -0.0004036 0.00433425 0.00433425 1148.39 265 1 
0.000267352 0.000427952 8.82302e-05 0.0361675 -0.0269909 -0.0269909 1182.87 266 1 
0.000293726 0.000426129 1.02421e-06 0.0335226 -0.0116718 -0.0116718 1186.8 267 1 
0.000314916 0.000429871 2.50702e-07 0.0115934 -0.0121884 -0.0121884 1178.58 268 1 
0.000340632 0.000425623 5.54496e-06 0.0393054 -0.00748865 -0.00748865 1157.2 269 1 
1.2519e-05 0.000423131 1.45807e-06 0.0220409 -0.00300678 -0.00300678 1245.24 270 1 
2.50857e-05 0.000450546 5.70529e-06 0.0265298 -0.0138688 -0.0138688 1223.8 271 1 
5.10859e-05 0.000454262 8.61458e-05 0.00980427 -0.0145958 -0.0145958 1206.38 272 1 
7.07503e-05 0.000446287 1.74312e-06 0.0109976 -0.0185971 -0.0185971 1201.56 273 1 
9.9446e-05 0.000450539 8.70907e-05 0.0270102 0.00779513 0.00779513 1189.47 274 1 
0.000121886 0.000455402 3.0196e-06 -0.000204787 -0.00863387 -0.00863387 1170.55 275 1 
0.000146119 0.000450394 1.88976e-06 -0.00437019 -0.0107997 -0.0107997 1136.19 276 1 
0.00017663 0.000447239 9.00854e-05 0.0431138 0.0199358 0.0199358 1105.57 277 1 
0.000193531 0.000453989 8.81914e-05 0.0376194 0.00692106 0.00692106 1142.37 278 1 
0.000218626 0.000450515 8.84584e-05 0.0220729 0.00323361 0.00323361 1155.37 279 1 
0.000243632 0.000444973 4.1233e-06 0.0105524 -0.00686038 -0.00686038 1140.27 280 1 
0.000272694 0.000450535 8.99901e-05 0.0340377 -0.00882408 -0.00882408 1185.62 281 1 
0.000290413 0.000446034 2.19337e-06 0.0136839 -0.000483159 -0.000483159 1180.18 282 1 
0.000317928 0.000452708 8.49116e-05 0.0319352 -0.000870569 -0.000870569 1211.93 283 1 
0.000336629 0.000453499 6.25159e-06 0.0158348 0.0117991 0.0117991 1155.47 284 1 
0.000366401 0.000444354 8.99509e-05 0.0187744 -0.00645852 -0.00645852 1215.39 285 1 
1.53062e-05 5.49175e-06 2.82905e-05 -0.0110079 -0.000176133 -0.000176133 1338.1 286 1 
7.58454e-05 0.000900276 3.0807e-05 0.0437187 0.0045325 0.0045325 1346.95 287 1 
9.24463e-05 0.000898041 2.55401e-05 0.0474119 0.0174973 0.0174973 1335.81 288 1 
0.000119764 0.000898473 3.29915e-05 0.0284623 -0.00715006 -0.00715006 1300.76 289 1 
0.000106981 7.5887e-06 2.45229e-05 -0.00802841 -0.00849838 -0.00849838 1308.01 290 1 
0.000135703 1.39212e-06 3.32728e-05 0.000196748 0.00784447 0.00784447 1327.61 291 1 
0.000152869 6.98608e-06 2.68614e-05 -0.0131069 -0.0174322 -0.0174322 1314.39 292 1 
0.000217431 0.000894077 2.76926e-05 0.0434477 -0.00227923 -0.00227923 1265.2 293 1 
0.000236052 0.000895886 2.90638e-05 0.039391 -0.00195443 -0.00195443 1281.06 294 1 
0.000261499 0.000895859 2.7257e-05 0.0394737 0.00139378 0.00139378 1328.18 295 1 
0.000259043 5.67489e-06 2.94785e-05 0.00209047 -0.0136332 -0.0136332 1353.08 296 1 
0.000278069 2.01581e-06 2.99293e-05 0.015776 -0.00789593 -0.00789593 1300.93 297 1 
0.000333715 0.000898223 2.44108e-05 0.0222005 0.0241337 0.0241337 1307.54 298 1 
0.000358155 0.000896602 2.82145e-05 0.0298126 0.00531584 0.00531584 1332.33 299 1 
2.72717e-05 0.000898562 2.58438e-05 0.0499196 0.000336441 0.000336441 1355.45 300 1 
8.56563e-06 3.55717e-05 2.57394e-05 0.0158226 -0.0181401 -0.0181401 1222.79 301 1 
3.51299e-05 3.59353e-05 3.16856e-05 0.0160312 -0.00189292 -0.00189292 1221.95 302 1 
5.41013e-05 3.19556e-05 2.995e-05 0.00976614 0.0083827 0.0083827 1239.71 303 1 
8.37984e-05 2.72842e-05 2.60626e-05 0.00551368 0.00100203 0.00100203 1214.18 304 1 
0.000106674 3.23297e-05 2.37602e-05 0.00921293 -0.00224452 -0.00224452 1219.61 305 1 
0.000128423 3.57277e-05 2.59563e-05 -0.00479312 0.017121 0.017121 1194.48 306 1 
0.000157539 4.04039e-05 3.17876e-05 0.0233403 -0.0108168 -0.0108168 1199.28 307 1 
0.000181242 3.55938e-05 2.68226e-05 0.00571687 0.00585603 0.00585603 1222.24 308 1 
0.000200769 3.52082e-05 2.86178e-05 -0.0072428 -0.00806415 -0.00806415 1214.72 309 1 
0.000222105 3.40807e-05 2.30701e-05 -0.0107072 0.00116093 0.00116093 1215.37 310 1 
0.000250191 3.41268e-05 2.76037e-05 0.00971469 -0.00494046 -0.00494046 1242.03 311 1 
0.000269609 3.73597e-05 2.97191e-05 0.0185814 0.00867488 0.00867488 1264.78 312 1 
0.000292874 4.20012e-05 2.6798e-05 0.00798676 -0.0064064 -0.0064064 1255.25 313 1 
0.000325587 3.67442e-05 3.0692e-05 0.0126404 0.00920469 0.00920469 1239.5 314 1 
0.000345613 3.78643e-05 2.95493e-05 0.000952966 0.0116361 0.0116361 1240.38 315 1 
7.00604e-06 5.49651e-05 3.36025e-05 0.00370486 0.0233807 0.0233807 1269.1 316 1 
3.72511e-05 5.34831e-05 2.93791e-05 0.0261397 0.00555168 0.00555168 1258.56 317 1 
5.61266e-05 5.74278e-05 2.66134e-05 -0.00644488 0.00776845 0.00776845 1271.62 318 1 
8.37982e-05 5.66626e-05 2.75105e-05 0.0150062 -0.0054504 -0.0054504 1259.01 319 1 
0.000100345 5.98001e-05 2.45509e-05 0.0182276 0.00952437 0.00952437 1270.57 320 1 
0.000128554 5.85526e-05 3.17516e-05 0.00973134 -0.00201865 -0.00201865 1239.17 321 1 
0.000157159 5.72919e-05 2.34491e-05 0.00295924 0.00103508 0.00103508 1261.73 322 1 
0.000179544 5.37654e-05 2.83822e-05 -0.00745079 0.0149793 0.0149793 1282.41 323 1 
0.000205962 5.62721e-05 2.08616e-05 0.00352793 0.0461619 0.0461619 1288.14 324 1 
0.000230646 5.45095e-05 2.74494e-05 -0.0208084 0.00615094 0.00615094 1231.52 325 1 
0.000255786 5.64102e-05 2.53642e-05 -0.00969008 -0.0155487 -0.0155487 1247.07 326 1 
0.000272985 5.86006e-05 2.55687e-05 0.0184905 -0.00572589 -0.00572589 1262.12 327 1 
0.000302544 5.19698e-05 2.96691e-05 0.0033678 0.00946126 0.00946126 1271.24 328 1 
0.000320776 5.58759e-05 2.61814e-05 -0.0101917 -0.00510437 -0.00510437 1284.77 329 1 
0.000346522 5.33784e-05 2.50215e-05 -0.00376461 0.00480755 0.00480755 1279.32 330 1 
1.12148e-05 7.86453e-05 3.2145e-05 0.00657792 0.00566657 0.00566657 1257.32 331 1 
3.60255e-05 8.77096e-05 2.66386e-05 0.0248553 -0.00684013 -0.00684013 1251.53 332 1 
5.93516e-05 8.00632e-05 2.77545e-05 0.012034 -0.00316018 -0.00316018 1250.83 333 1 
8.16613e-05 7.36836e-05 2.50271e-05 -0.0351359 -0.00257187 -0.00257187 1227.31 334 1 
0.000109701 8.16039e-05 2.35798e-05 -0.017083 -0.00363598 -0.00363598 1228.4 335 1 
0.000127335 8.16843e-05 2.82889e-05 -0.0104886 -0.00558707 -0.00558707 1224.7 336 1 
0.000157803 7.68947e-05 2.5352e-05 0.0141167 -0.0148306 -0.0148306 1254.19 337 1 
0.000181726 7.65952e-05 2.93163e-05 -0.00228364 -0.0166458 -0.0166458 1262.8 338 1 
0.00020335 7.17236e-05 2.91922e-05 -0.022416 0.00798769 0.00798769 1249.54 339 1 
0.00022983 8.0825e-05 2.445e-05 0.0351539 0.00464366 0.00464366 1192.17 340 1 
0.000248465 7.92854e-05 2.53271e-05 0.00789714 0.00862829 0.00862829 1206.42 341 1 
0.000276275 8.22732e-05 2.36067e-05 0.0185719 -0.00760346 -0.00760346 1225.34 342 1 
0.000297945 8.61673e-05 2.56329e-05 2.80922e-05 0.00783426 0.00783426 1224.7 343 1 
0.00032373 8.14456e-05 2.65244e-05 0.021179 -0.00062288 -0.00062288 1247.17 344 1 
0.000349271 8.24044e-05 2.201e-05 0.0180949 0.00475137 0.00475137 1272.73 345 1 
1.42103e-05 9.98936e-05 3.03027e-05 -0.00416377 -0.0151815 -0.0151815 1250 346 1 
3.45368e-05 9.91585e-05 2.64744e-05 -0.000667567 -0.0109112 -0.0109112 1251.65 347 1 
6.00823e-05 0.00010433 2.34111e-05 0.026155 -0.000796822 -0.000796822 1258.36 348 1 
8.23809e-05 0.000103748 3.1462e-05 0.00899311 -0.00215368 -0.00215368 1194.08 349 1 
0.000103624 0.000106794 3.08634e-05 0.00377927 -0.0345135 -0.0345135 1186.6 350 1 
0.000128265 0.000102093 2.06115e-05 0.011243 -0.00246768 -0.00246768 1202.23 351 1 
0.000154731 9.97875e-05 2.98656e-05 -0.0159872 0.00624386 0.00624386 1197.43 352 1 
0.000177454 9.41563e-05 3.03122e-05 -0.00833908 -0.00294098 -0.00294098 1207.57 353 1 
0.000206391 0.000106434 2.65716e-05 0.00415009 -0.0174529 -0.0174529 1154.31 354 1 
0.000230257 0.000103562 2.29672e-05 -0.000333111 -0.0120087 -0.0120087 1178.22 355 1 
0.000252981 0.000109291 2.96994e-05 -0.0113914 0.00191448 0.00191448 1200.14 356 1 
0.000274827 0.000102257 2.02898e-05 0.00633485 -0.000253964 -0.000253964 1224.91 357 1 
0.000305124 0.000100674 2.64389e-05 0.0090691 0.00684021 0.00684021 1223.96 358 1 
0.000328142 0.00010129 2.70735e-05 -0.00982168 0.00807393 0.00807393 1241.02 359 1 
0.000357025 0.000100046 2.94579e-05 0.00679917 0.0181726 0.0181726 1270.11 360 1 