ITEM: TIMESTEP
4000
ITEM: NUMBER OF ATOMS
2220
ITEM: BOX BOUNDS xy xz yz pp pp pp
-0.000142738 0.0003606 -0.000142738
0 0.0009015 0
0 9.015e-05 0
ITEM: ATOMS x y z vx vy vy c_rho_peratom id type 
0.00010047 8.96601e-06 8.78809e-05 0.000440456 2.66639e-06 2.66639e-06 1221.05 1 1 
-1.3104e-07 0.000894304 7.71729e-05 0.0447203 -1.45363e-06 -1.45363e-06 1184.93 2 1 
0.000158186 1.17736e-05 1.10846e-06 0.000589596 -9.7861e-07 -9.7861e-07 1137.92 3 1 
4.14036e-05 0.000887765 1.42229e-06 0.0443885 1.13931e-08 1.13931e-08 1216 4 1 
-8.62893e-05 0.000885265 4.16044e-07 0.0442604 1.29114e-06 1.29114e-06 1264.7 5 1 
0.000236281 1.56939e-05 8.18642e-05 0.000794274 -3.35123e-06 -3.35123e-06 1187.58 6 1 
9.80403e-05 0.000892123 7.26064e-06 0.0446112 -1.03332e-06 -1.03332e-06 1192.77 7 1 
0.000276309 6.7405e-06 7.86494e-05 0.000334261 1.10588e-06 1.10588e-06 1168.23 8 1 
0.000322142 9.90821e-06 6.95778e-07 0.000499484 -9.08705e-07 -9.08705e-07 1235.1 9 1 
0.000323897 2.97214e-05 7.97305e-05 0.00149036 -1.89458e-06 -1.89458e-06 1206.87 10 1 
0.000357687 1.64704e-05 7.37879e-06 0.000818586 2.08752e-06 2.08752e-06 1211.18 11 1 
3.61649e-05 1.45362e-05 3.2329e-06 0.000720127 2.92357e-06 2.92357e-06 1195.83 12 1 
-0.000112516 0.000889212 2.29538e-06 0.0444613 -1.08918e-07 -1.08918e-07 1191.27 13 1 
6.45231e-05 7.22533e-06 9.6163e-06 0.00035988 1.51108e-06 1.51108e-06 1254.74 14 1 
0.000174206 0.000898256 2.06349e-05 0.0449165 -2.10731e-06 -2.10731e-06 1243.54 15 1 
0.000100682 4.23784e-05 8.5903e-05 0.00212144 1.59612e-07 1.59612e-07 1206.21 16 1 
0.000134985 3.89743e-05 9.41348e-06 0.00194382 2.41186e-06 2.41186e-06 1190.47 17 1 
0.000152313 3.02418e-05 6.84321e-06 0.00150625 3.45371e-06 3.45371e-06 1136.29 18 1 
0.000183461 5.65065e-05 8.97512e-05 0.00282133 1.65901e-06 1.65901e-06 1198.81 19 1 
0.000190994 3.33394e-05 2.2437e-05 0.00167064 -2.51986e-06 -2.51986e-06 1200.03 20 1 
0.00021822 4.15062e-05 4.03518e-06 0.00207461 9.40333e-07 9.40333e-07 1181.69 21 1 
0.000236045 2.63214e-05 4.27627e-06 0.00131443 1.06648e-06 1.06648e-06 1222.75 22 1 
0.000269926 2.93278e-05 8.90105e-05 0.00147444 -3.0946e-06 -3.0946e-06 1174.29 23 1 
0.000308264 4.93413e-05 1.52749e-05 0.00247274 -3.63054e-06 -3.63054e-06 1205.24 24 1 
0.000318727 4.66737e-05 8.02559e-05 0.00233642 -2.26984e-06 -2.26984e-06 1197.66 25 1 
0.000341607 3.31496e-05 4.63576e-06 0.0016596 -2.22062e-07 -2.22062e-07 1223.99 26 1 
1.42409e-07 3.32814e-05 1.81069e-05 0.00166446 -2.1012e-07 -2.1012e-07 1198.23 27 1 
2.94719e-05 3.28177e-05 4.62977e-06 0.00163785 3.28656e-07 3.28656e-07 1198.31 28 1 
6.94853e-05 4.87379e-05 8.30332e-05 0.00243906 1.93889e-07 1.93889e-07 1212.5 29 1 
8.51031e-05 3.3562e-05 8.2205e-05 0.00168148 -2.38245e-06 -2.38245e-06 1209.19 30 1 
0.000139907 6.40301e-05 8.79746e-05 0.00320481 -1.81902e-06 -1.81902e-06 1177.81 31 1 
0.00013943 4.26789e-05 8.99526e-05 0.00213877 -9.76861e-07 -9.76861e-07 1176.68 32 1 
0.000180194 7.53785e-05 1.29406e-07 0.00376965 -7.99307e-07 -7.99307e-07 1205.76 33 1 
0.000185235 4.42286e-05 8.5828e-05 0.002204 3.45264e-06 3.45264e-06 1191.94 34 1 
0.000236345 6.95451e-05 4.79072e-06 0.00347096 2.33771e-06 2.33771e-06 1183.89 35 1 
0.000253346 6.52133e-05 4.68514e-06 0.00326208 2.48954e-07 2.48954e-07 1188.7 36 1 
0.000262868 5.57595e-05 1.28436e-06 0.00277976 4.34129e-06 4.34129e-06 1187.03 37 1 
0.000283474 5.40655e-05 2.02979e-06 0.00270226 7.097e-07 7.097e-07 1186.16 38 1 
0.000317416 5.45764e-05 1.11172e-06 0.00273007 -3.0127e-07 -3.0127e-07 1203.94 39 1 
0.000345487 5.87116e-05 1.25432e-05 0.00293707 1.08302e-07 1.08302e-07 1188.8 40 1 
1.147e-05 6.4404e-05 4.98916e-06 0.00321662 1.68025e-06 1.68025e-06 1208.02 41 1 
2.88691e-05 6.51652e-05 8.42493e-05 0.00326068 -1.86291e-06 -1.86291e-06 1221.36 42 1 
4.93393e-05 4.76133e-05 6.65669e-06 0.0023776 6.54356e-07 6.54356e-07 1196.25 43 1 
6.674e-05 5.36673e-05 8.78366e-05 0.00268201 5.05822e-07 5.05822e-07 1210.32 44 1 
0.000109832 5.74601e-05 3.34455e-06 0.00286762 2.78201e-06 2.78201e-06 1200.72 45 1 
0.00019242 8.07338e-05 3.48442e-06 0.00403587 1.13063e-06 1.13063e-06 1200.86 46 1 
0.000182696 7.2402e-05 7.33658e-08 0.00361964 2.02157e-07 2.02157e-07 1206.9 47 1 
0.000214574 8.23963e-05 8.98801e-05 0.00412152 -1.6876e-08 -1.6876e-08 1181.24 48 1 
0.000257789 8.21246e-05 1.20419e-06 0.00410439 -4.01072e-08 -4.01072e-08 1199.89 49 1 
0.000271523 7.81614e-05 1.21605e-05 0.00391411 -2.21978e-06 -2.21978e-06 1206.83 50 1 
0.000299488 8.80022e-05 7.78441e-05 0.00439727 1.30808e-06 1.30808e-06 1218.73 51 1 
0.000336246 8.77912e-05 4.89196e-06 0.00438853 1.04645e-06 1.04645e-06 1198.62 52 1 
-2.44054e-06 7.96426e-05 8.42972e-06 0.00397946 2.38485e-06 2.38485e-06 1211.03 53 1 
1.71187e-05 7.99702e-05 8.93729e-05 0.00400212 -1.18628e-06 -1.18628e-06 1214.77 54 1 
3.79182e-05 8.94186e-05 8.59058e-05 0.00446962 -1.60252e-07 -1.60252e-07 1186.21 55 1 
6.3795e-05 8.67701e-05 8.73456e-05 0.00433782 -4.72375e-08 -4.72375e-08 1204.98 56 1 
8.62601e-05 8.24901e-05 3.81675e-06 0.00412588 1.19543e-07 1.19543e-07 1202.35 57 1 
0.00012477 9.48777e-05 8.58492e-05 0.00473781 2.48542e-06 2.48542e-06 1221.16 58 1 
0.000134003 8.99356e-05 5.71274e-06 0.00449759 -7.30657e-07 -7.30657e-07 1200.18 59 1 
0.000148448 7.6767e-05 1.05471e-05 0.00383063 2.45878e-06 2.45878e-06 1177.54 60 1 
0.000208165 0.000107061 1.29066e-05 0.0053516 8.04907e-07 8.04907e-07 1178.26 61 1 
0.000242651 0.000107329 7.29826e-06 0.00536904 -1.9055e-06 -1.9055e-06 1189.33 62 1 
0.000278528 0.000112683 7.61866e-05 0.0056366 -8.99628e-07 -8.99628e-07 1195.94 63 1 
0.000293517 0.000104898 1.33258e-06 0.0052418 8.5756e-07 8.5756e-07 1206.04 64 1 
0.000328006 0.000103645 7.46501e-06 0.00519091 -3.08061e-06 -3.08061e-06 1198.65 65 1 
-4.95526e-06 0.0001166 5.34195e-06 0.00583834 -4.24395e-06 -4.24395e-06 1213.09 66 1 
-3.0458e-06 9.63263e-05 3.12042e-06 0.00481263 1.40817e-06 1.40817e-06 1224.23 67 1 
3.86369e-05 0.000106659 5.0409e-07 0.00533371 -4.01465e-07 -4.01465e-07 1179.18 68 1 
4.53499e-05 0.000118286 3.70202e-06 0.00592088 -2.36412e-06 -2.36412e-06 1202.3 69 1 
6.83012e-05 9.82387e-05 8.97218e-05 0.0049153 -4.97905e-07 -4.97905e-07 1205.54 70 1 
9.63682e-05 0.000102896 7.49139e-06 0.00514688 -6.76675e-07 -6.76675e-07 1205.76 71 1 
0.000141844 0.000112633 2.09425e-06 0.00562695 2.17873e-06 2.17873e-06 1205.12 72 1 
0.000164519 0.000111512 4.27299e-06 0.00557598 -6.4338e-07 -6.4338e-07 1193.38 73 1 
0.000188285 0.00011743 4.3492e-06 0.00586978 1.3063e-06 1.3063e-06 1201.22 74 1 
0.000204432 0.000105179 5.79103e-06 0.00525925 -2.28919e-07 -2.28919e-07 1182.43 75 1 
0.000244752 0.000125004 7.53356e-06 0.00625038 -8.54494e-07 -8.54494e-07 1172.28 76 1 
0.000298359 0.000130168 8.70333e-05 0.00650593 1.67832e-06 1.67832e-06 1190.96 77 1 
0.000318798 0.000124693 7.63332e-06 0.00623203 9.81999e-07 9.81999e-07 1195.29 78 1 
-4.24591e-06 0.000131177 7.5627e-06 0.00655619 5.18658e-07 5.18658e-07 1198.04 79 1 
1.75257e-05 0.000135149 3.81531e-06 0.00675471 3.95565e-07 3.95565e-07 1188.46 80 1 
3.43149e-05 0.00012852 4.87163e-06 0.00642271 2.27285e-06 2.27285e-06 1202.02 81 1 
7.02126e-05 0.000144381 7.51461e-06 0.00722139 -1.0087e-06 -1.0087e-06 1192.11 82 1 
8.77141e-05 0.000134682 8.85648e-05 0.00673405 -4.77499e-08 -4.77499e-08 1165.8 83 1 
0.000118326 0.000129125 1.10241e-05 0.00645399 1.85722e-06 1.85722e-06 1195.08 84 1 
0.000121187 0.000123717 4.53588e-06 0.00618353 1.79433e-06 1.79433e-06 1198.92 85 1 
0.000156575 0.000133392 8.87206e-05 0.00667438 -1.52871e-06 -1.52871e-06 1212.79 86 1 
0.000173904 0.000126213 8.90322e-05 0.00631226 -9.38358e-07 -9.38358e-07 1214.44 87 1 
0.000216069 0.000136002 8.98047e-05 0.00680197 -9.46223e-07 -9.46223e-07 1192.35 88 1 
0.000237407 0.000129759 8.61168e-05 0.00648408 2.45058e-06 2.45058e-06 1180.65 89 1 
0.000287874 0.000139363 4.33369e-06 0.0069699 -1.42609e-06 -1.42609e-06 1195.83 90 1 
0.000313778 0.000148491 1.56718e-05 0.00742088 1.98813e-06 1.98813e-06 1187.64 91 1 
2.56251e-06 0.000162769 8.3128e-05 0.00813605 7.99756e-07 7.99756e-07 1183.31 92 1 
1.92942e-05 0.000163275 3.53052e-06 0.00815871 1.56227e-06 1.56227e-06 1192.63 93 1 
3.33832e-05 0.000151428 1.04037e-06 0.00756945 5.91487e-07 5.91487e-07 1200.7 94 1 
4.73019e-05 0.000152223 4.92778e-06 0.00761165 -1.03437e-06 -1.03437e-06 1216.96 95 1 
8.57978e-05 0.000144008 1.56178e-06 0.00720684 -2.25798e-06 -2.25798e-06 1157.78 96 1 
0.000126597 0.000167957 8.91384e-05 0.00839523 9.63329e-07 9.63329e-07 1201.85 97 1 
0.000131438 0.000153409 8.03237e-05 0.00767134 -5.68397e-07 -5.68397e-07 1187.36 98 1 
0.00014831 0.000152649 8.36878e-05 0.00763686 -2.2239e-06 -2.2239e-06 1195.53 99 1 
0.000185188 0.000160214 8.47761e-05 0.00800625 8.64905e-07 8.64905e-07 1196.91 100 1 
0.000201882 0.000152516 5.18933e-06 0.0076235 1.36248e-06 1.36248e-06 1195.4 101 1 
0.000220938 0.000154243 8.1848e-05 0.0077142 -3.71408e-07 -3.71408e-07 1184.01 102 1 
0.000249172 0.000153245 8.82171e-05 0.00765993 6.41556e-07 6.41556e-07 1193.96 103 1 
0.000278343 0.0001565 7.61107e-05 0.00781733 3.18486e-06 3.18486e-06 1199.51 104 1 
0.000311873 0.000160983 8.72023e-05 0.00805087 -8.24225e-07 -8.24225e-07 1174.55 105 1 
8.935e-06 0.00017795 1.02174e-05 0.00889793 -1.36325e-07 -1.36325e-07 1188.21 106 1 
3.61267e-05 0.000174526 8.41628e-05 0.0087271 -1.8646e-07 -1.8646e-07 1175.48 107 1 
7.11325e-05 0.000181805 8.7674e-05 0.00908909 3.75216e-07 3.75216e-07 1192.93 108 1 
8.06363e-05 0.000176627 8.17062e-05 0.00882515 3.12798e-06 3.12798e-06 1189.7 109 1 
0.000120883 0.000180388 1.30421e-05 0.00901671 2.03784e-06 2.03784e-06 1205.5 110 1 
0.000145441 0.000190445 6.35336e-06 0.00952143 3.69064e-07 3.69064e-07 1200.71 111 1 
0.000180183 0.000190808 1.00035e-05 0.00954292 -2.59087e-06 -2.59087e-06 1202.55 112 1 
0.000183421 0.000174951 1.19049e-08 0.00875259 -1.60193e-06 -1.60193e-06 1203.53 113 1 
0.000211674 0.000191602 8.08976e-05 0.00957645 1.5863e-06 1.5863e-06 1173.45 114 1 
0.000243354 0.000187894 8.9189e-05 0.00939426 3.3438e-07 3.3438e-07 1167.32 115 1 
0.000258677 0.000182816 1.25437e-05 0.00914553 -2.27959e-06 -2.27959e-06 1183.87 116 1 
0.000271333 0.000170662 1.36913e-05 0.00853667 -1.29078e-07 -1.29078e-07 1215.65 117 1 
0.000313929 0.000185373 2.61681e-06 0.00926874 -4.80332e-07 -4.80332e-07 1193.27 118 1 
-1.45444e-05 0.000186264 1.77008e-05 0.00932015 -3.20927e-06 -3.20927e-06 1180.39 119 1 
-2.48663e-05 0.000182899 5.60945e-06 0.00914751 -1.08507e-06 -1.08507e-06 1189.31 120 1 
7.31605e-05 0.000200302 8.66485e-05 0.0100216 -2.64663e-06 -2.64663e-06 1221.35 121 1 
8.13863e-05 0.000202741 5.84436e-06 0.0101367 5.14931e-07 5.14931e-07 1220.37 122 1 
0.000121716 0.000206351 6.22664e-07 0.0103161 1.71704e-07 1.71704e-07 1203.93 123 1 
0.000151905 0.000213791 1.19945e-06 0.0106863 2.27603e-06 2.27603e-06 1197.63 124 1 
0.000179321 0.0002115 1.19343e-05 0.0105688 2.42605e-06 2.42605e-06 1181.74 125 1 
0.000183198 0.000206055 1.01506e-05 0.0103021 1.58473e-07 1.58473e-07 1179.93 126 1 
0.000231712 0.000214262 2.13896e-06 0.0107085 2.23061e-06 2.23061e-06 1174.55 127 1 
0.000210776 0.000191171 8.78232e-05 0.00955999 1.36545e-07 1.36545e-07 1170.54 128 1 
0.000256597 0.000200477 1.46619e-05 0.0100242 -4.27431e-07 -4.27431e-07 1162.41 129 1 
0.00028548 0.000206136 6.04956e-06 0.0103099 -1.38859e-06 -1.38859e-06 1184.21 130 1 
0.000317599 0.000206764 8.79794e-05 0.0103405 -6.63913e-07 -6.63913e-07 1200.71 131 1 
0.000325737 0.00020244 8.2683e-05 0.0101257 -2.10746e-06 -2.10746e-06 1207.77 132 1 
6.49304e-06 0.000207864 2.35787e-06 0.0103944 -9.63316e-07 -9.63316e-07 1195.73 133 1 
4.47223e-05 0.000218926 4.59908e-06 0.0109472 -3.09831e-07 -3.09831e-07 1213.24 134 1 
5.50689e-05 0.000204726 8.34089e-05 0.0102372 -6.56279e-07 -6.56279e-07 1222.84 135 1 
0.000129916 0.000232272 4.9257e-06 0.0116135 -5.48632e-07 -5.48632e-07 1202.82 136 1 
0.000135851 0.00023105 1.64021e-05 0.0115512 3.82195e-07 3.82195e-07 1194.74 137 1 
0.000173722 0.000230122 8.93967e-05 0.0115084 -1.02742e-06 -1.02742e-06 1184.33 138 1 
0.000207788 0.000241026 8.85181e-05 0.0120498 6.82625e-07 6.82625e-07 1210.44 139 1 
0.00023325 0.000232087 6.03034e-06 0.0116063 -2.11541e-06 -2.11541e-06 1185.33 140 1 
0.000235534 0.0002221 8.08067e-05 0.0111026 2.50987e-07 2.50987e-07 1189.01 141 1 
0.000264056 0.00023368 3.92212e-06 0.0116858 -1.01468e-06 -1.01468e-06 1178.95 142 1 
0.000289746 0.000235517 8.83362e-05 0.0117718 1.79145e-06 1.79145e-06 1207 143 1 
0.000295048 0.00022673 1.05839e-05 0.0113378 -1.31545e-06 -1.31545e-06 1179.84 144 1 
-3.12235e-05 0.000225982 8.80631e-05 0.0112972 7.49037e-07 7.49037e-07 1156.02 145 1 
-9.04293e-07 0.000230139 2.65794e-06 0.0115102 -7.58267e-07 -7.58267e-07 1214.82 146 1 
1.77496e-05 0.000231843 4.81671e-06 0.0115937 -1.27252e-06 -1.27252e-06 1216.54 147 1 
5.36964e-05 0.000227 1.14011e-05 0.0113515 -1.16073e-06 -1.16073e-06 1190.27 148 1 
5.65969e-05 0.000214633 8.5518e-05 0.0107292 1.26322e-06 1.26322e-06 1230.96 149 1 
9.17141e-05 0.000228795 8.77432e-05 0.0114344 1.96062e-06 1.96062e-06 1164.96 150 1 
0.00017321 0.00025693 8.09264e-06 0.0128364 3.49404e-06 3.49404e-06 1191.36 151 1 
0.000195649 0.000256164 2.28741e-06 0.0128041 8.2973e-07 8.2973e-07 1184.95 152 1 
0.000226093 0.000251338 8.56073e-05 0.012567 -1.63707e-06 -1.63707e-06 1187.88 153 1 
0.000229035 0.000249401 8.85268e-05 0.0124703 5.62254e-07 5.62254e-07 1187.49 154 1 
0.00025997 0.000249469 8.53228e-05 0.0124735 -6.96704e-07 -6.96704e-07 1188.41 155 1 
0.000300369 0.000261477 8.79119e-06 0.0130758 -9.0344e-07 -9.0344e-07 1175 156 1 
-2.56922e-05 0.00026417 8.03542e-05 0.0132179 -3.47988e-06 -3.47988e-06 1185.81 157 1 
-6.50704e-06 0.000267156 2.14688e-06 0.0133582 -6.51491e-07 -6.51491e-07 1199.97 158 1 
-1.13853e-05 0.000242576 6.01554e-06 0.012129 4.58641e-07 4.58641e-07 1213.84 159 1 
1.94316e-05 0.00025236 7.77865e-05 0.0126197 -6.37068e-07 -6.37068e-07 1185.15 160 1 
6.56689e-05 0.000261632 3.91603e-06 0.0130822 1.98124e-07 1.98124e-07 1157.99 161 1 
9.89543e-05 0.000263863 8.30853e-05 0.013196 1.06712e-07 1.06712e-07 1199.92 162 1 
0.000106449 0.000253272 7.85047e-06 0.0126592 2.12794e-07 2.12794e-07 1178.77 163 1 
0.000120359 0.000252988 6.40743e-06 0.0126467 2.53072e-06 2.53072e-06 1210.04 164 1 
0.000143413 0.00025081 5.82117e-06 0.0125354 3.23896e-06 3.23896e-06 1207.25 165 1 
0.000238182 0.000292241 8.1914e-05 0.0146197 -3.5568e-06 -3.5568e-06 1205.82 166 1 
0.000242668 0.000273449 1.63114e-06 0.0136715 1.54664e-06 1.54664e-06 1180.36 167 1 
0.000276902 0.000281953 3.01977e-06 0.0141 -2.61554e-07 -2.61554e-07 1190.16 168 1 
0.000273629 0.000265511 1.03018e-05 0.0132666 3.65084e-06 3.65084e-06 1197.01 169 1 
0.000312237 0.000282047 2.96161e-06 0.0140971 1.59421e-06 1.59421e-06 1193.98 170 1 
-2.47627e-05 0.000273877 5.90518e-06 0.0136957 2.62064e-07 2.62064e-07 1221.31 171 1 
-8.64155e-06 0.000266499 8.63445e-05 0.013324 1.61182e-06 1.61182e-06 1199.64 172 1 
2.46402e-05 0.000279406 1.32364e-05 0.013965 1.47214e-06 1.47214e-06 1189.27 173 1 
7.06047e-05 0.000286694 8.69524e-05 0.0143318 8.46985e-07 8.46985e-07 1193.84 174 1 
8.20893e-05 0.000286335 4.31525e-06 0.0143196 -8.62645e-07 -8.62645e-07 1211.39 175 1 
0.00011464 0.000280823 1.5865e-05 0.0140422 -4.0478e-07 -4.0478e-07 1170.79 176 1 
0.000128885 0.000272069 8.81538e-05 0.013597 3.26593e-06 3.26593e-06 1182.32 177 1 
0.00015681 0.000290535 4.23211e-07 0.0145297 -3.90634e-07 -3.90634e-07 1196.84 178 1 
0.000193949 0.000289114 2.75461e-06 0.0144478 2.81212e-06 2.81212e-06 1174.9 179 1 
0.000185007 0.000275484 8.73856e-05 0.0137791 -1.06337e-06 -1.06337e-06 1177.97 180 1 
0.000288827 0.000309676 5.93665e-06 0.0154902 -3.9828e-06 -3.9828e-06 1181.44 181 1 
0.000268952 0.000282707 8.99529e-05 0.0141405 -1.64767e-06 -1.64767e-06 1198.24 182 1 
-3.11025e-05 0.000310705 1.40268e-05 0.0155324 1.04053e-06 1.04053e-06 1189.72 183 1 
-1.50891e-05 0.000302605 5.4083e-06 0.0151345 -2.17146e-06 -2.17146e-06 1181.72 184 1 
8.72083e-06 0.000297854 2.10514e-05 0.0148939 8.0526e-08 8.0526e-08 1173.88 185 1 
1.39267e-05 0.000298303 8.51925e-05 0.0149153 2.11185e-07 2.11185e-07 1178.32 186 1 
3.38843e-05 0.000300391 8.64535e-05 0.0150122 2.21481e-06 2.21481e-06 1186.56 187 1 
6.98732e-05 0.000299749 8.12743e-05 0.0149843 2.3354e-06 2.3354e-06 1183.39 188 1 
9.68252e-05 0.000301332 1.63852e-05 0.0150715 -2.04203e-06 -2.04203e-06 1195.85 189 1 
0.000128569 0.000296311 8.38407e-05 0.0148117 1.09095e-06 1.09095e-06 1149.14 190 1 
0.000171081 0.000309651 8.93965e-05 0.0154838 -3.6141e-07 -3.6141e-07 1206.33 191 1 
0.000186241 0.00030449 8.54639e-05 0.0152249 1.47256e-07 1.47256e-07 1188.6 192 1 
0.000223756 0.000315287 7.76035e-06 0.015763 7.0252e-07 7.0252e-07 1195.76 193 1 
0.000219023 0.000299917 1.38062e-06 0.0150009 -1.55525e-06 -1.55525e-06 1202.41 194 1 
0.00026704 0.000316379 8.80417e-05 0.0158171 8.89781e-07 8.89781e-07 1181.56 195 1 
-3.38223e-05 0.000327366 8.77332e-05 0.0163632 3.05401e-06 3.05401e-06 1182.24 196 1 
-1.61729e-06 0.000328637 1.1636e-05 0.016423 3.7401e-06 3.7401e-06 1173.06 197 1 
9.01869e-06 0.000328369 8.90284e-05 0.0164211 -7.79632e-08 -7.79632e-08 1179 198 1 
2.50677e-05 0.000321426 1.22182e-06 0.0160694 7.54368e-07 7.54368e-07 1176.3 199 1 
5.32246e-05 0.000323527 3.75112e-06 0.0161758 -2.33885e-08 -2.33885e-08 1166.01 200 1 
8.6257e-05 0.000326806 6.48223e-06 0.0163403 5.57006e-07 5.57006e-07 1181.02 201 1 
0.000122429 0.000328176 5.39837e-07 0.0164077 3.55207e-07 3.55207e-07 1167.17 202 1 
0.000132787 0.000334083 8.36924e-05 0.0166994 2.69087e-06 2.69087e-06 1202.03 203 1 
0.000150616 0.000332404 2.51811e-06 0.0166227 -1.91074e-06 -1.91074e-06 1202.16 204 1 
0.000169957 0.000326202 3.5215e-06 0.0163129 -1.88635e-06 -1.88635e-06 1165.71 205 1 
0.000202592 0.000326503 9.60664e-06 0.0163242 1.33806e-06 1.33806e-06 1177.01 206 1 
0.000223926 0.000323857 9.098e-06 0.0161875 1.63329e-06 1.63329e-06 1176.94 207 1 
0.000256925 0.000333887 1.40512e-05 0.0166965 -9.11297e-07 -9.11297e-07 1182.9 208 1 
0.000276967 0.000324695 8.80333e-05 0.0162309 7.3983e-07 7.3983e-07 1190.81 209 1 
-5.1842e-05 0.000332193 8.33606e-07 0.0166105 -4.67908e-08 -4.67908e-08 1181.08 210 1 
1.6272e-05 0.000350549 8.84968e-06 0.0175318 -5.36549e-07 -5.36549e-07 1190.9 211 1 
3.52008e-05 0.000350787 4.26687e-07 0.0175474 -3.61389e-06 -3.61389e-06 1176.16 212 1 
6.44161e-05 0.000358153 4.93811e-06 0.0179065 3.46621e-07 3.46621e-07 1170.76 213 1 
7.67523e-05 0.000348065 1.76032e-06 0.0174011 7.98895e-07 7.98895e-07 1164.16 214 1 
0.000100451 0.000347584 8.33911e-05 0.0173783 1.02231e-06 1.02231e-06 1164.95 215 1 
0.000127962 0.000351492 8.86835e-05 0.01758 -1.32346e-06 -1.32346e-06 1207.7 216 1 
0.000163469 0.000359711 6.21922e-06 0.017987 6.32641e-08 6.32641e-08 1166.14 217 1 
0.00018696 0.000351143 5.57829e-07 0.0175591 -1.01659e-06 -1.01659e-06 1140.39 218 1 
0.000204461 0.000348568 3.13779e-07 0.017426 1.11524e-06 1.11524e-06 1162.59 219 1 
0.000225353 0.000357088 2.64859e-06 0.0178553 3.46653e-07 3.46653e-07 1162.71 220 1 
0.000250038 0.000348864 4.14796e-06 0.0174415 7.94442e-07 7.94442e-07 1174.04 221 1 
0.000286334 0.000350237 8.44852e-05 0.0175117 1.91232e-07 1.91232e-07 1163.94 222 1 
-4.85854e-05 0.000352481 5.79512e-06 0.0176254 -2.55625e-07 -2.55625e-07 1161.6 223 1 
-2.8041e-05 0.000355261 9.57353e-06 0.0177665 -1.88593e-06 -1.88593e-06 1178.92 224 1 
-2.02123e-05 0.000339268 4.70481e-06 0.016963 -8.99029e-08 -8.99029e-08 1176.83 225 1 
5.34565e-05 0.000366127 8.8656e-05 0.0183075 2.23162e-07 2.23162e-07 1169.16 226 1 
0.00011183 0.000384457 8.96613e-06 0.0192227 2.13501e-07 2.13501e-07 1213.91 227 1 
0.000113307 0.000375928 3.6973e-06 0.0187974 1.84399e-07 1.84399e-07 1212.29 228 1 
0.000139212 0.000375603 8.36757e-05 0.018781 -9.342e-07 -9.342e-07 1202.14 229 1 
0.000169008 0.000377769 1.57263e-05 0.0188841 1.00092e-06 1.00092e-06 1189.18 230 1 
0.000189823 0.000376208 8.99638e-06 0.0188159 -2.12907e-06 -2.12907e-06 1171.37 231 1 
0.000196296 0.000374538 8.88811e-05 0.0187306 -8.5569e-07 -8.5569e-07 1168.32 232 1 
0.000223999 0.000370407 1.88071e-05 0.0185195 1.2743e-07 1.2743e-07 1143.78 233 1 
0.000264409 0.000381668 3.60425e-06 0.0190826 -5.18823e-07 -5.18823e-07 1177.45 234 1 
0.0002871 0.000378194 7.50402e-06 0.0189052 1.99588e-06 1.99588e-06 1162.56 235 1 
-4.61313e-05 0.000380742 8.78526e-05 0.0190325 1.95094e-07 1.95094e-07 1210.22 236 1 
-2.56307e-05 0.000375899 2.71568e-06 0.0187932 1.19049e-06 1.19049e-06 1195.39 237 1 
6.12863e-06 0.000381378 7.9526e-05 0.0190625 1.64654e-06 1.64654e-06 1166.22 238 1 
8.45504e-06 0.000369457 9.20726e-06 0.0184741 -8.85817e-07 -8.85817e-07 1186.74 239 1 
5.48933e-05 0.000374945 8.47563e-06 0.0187464 1.34382e-06 1.34382e-06 1169.86 240 1 
0.000129248 0.000408911 7.65164e-05 0.0204476 -1.92286e-07 -1.92286e-07 1184.56 241 1 
0.000123572 0.000394581 8.25795e-05 0.0197294 -4.08657e-07 -4.08657e-07 1199.38 242 1 
0.000169424 0.000399898 3.0904e-06 0.0199935 3.34215e-07 3.34215e-07 1194.06 243 1 
0.000200838 0.000405559 1.24537e-05 0.0202801 -1.05485e-06 -1.05485e-06 1189.1 244 1 
0.000225069 0.000406417 7.71196e-05 0.0203232 -8.04044e-07 -8.04044e-07 1170.52 245 1 
0.000230394 0.00040163 8.55193e-05 0.0200847 -1.71072e-06 -1.71072e-06 1169.56 246 1 
0.000252709 0.000397364 8.94829e-05 0.019869 4.83617e-07 4.83617e-07 1175.85 247 1 
-5.55663e-05 0.000408863 8.8665e-05 0.0204397 1.03117e-06 1.03117e-06 1187.44 248 1 
-5.41124e-05 0.000398385 1.2026e-06 0.019924 -8.21705e-07 -8.21705e-07 1193.65 249 1 
-3.02279e-05 0.000398161 8.51005e-05 0.0199079 -7.66427e-07 -7.66427e-07 1201.86 250 1 
-1.62395e-05 0.000398475 4.38522e-06 0.0199287 -2.06385e-06 -2.06385e-06 1190.68 251 1 
2.96441e-05 0.000399895 2.39244e-06 0.0199933 4.5525e-07 4.5525e-07 1163.51 252 1 
5.4457e-05 0.000402463 1.40376e-05 0.0201191 2.19142e-06 2.19142e-06 1177.46 253 1 
7.81058e-05 0.000407644 5.55169e-06 0.0203827 -1.31738e-06 -1.31738e-06 1141.68 254 1 
0.000108822 0.000407499 4.40245e-06 0.020375 -9.30506e-07 -9.30506e-07 1186.24 255 1 
0.000172 0.000420963 9.06376e-06 0.0210491 -7.14015e-07 -7.14015e-07 1192.35 256 1 
0.000179447 0.000415016 4.41548e-06 0.0207521 -5.63737e-07 -5.63737e-07 1206.75 257 1 
0.000206246 0.000423147 4.88664e-06 0.0211606 -1.24805e-06 -1.24805e-06 1187.22 258 1 
0.000259814 0.000432559 8.64866e-05 0.0216243 2.42927e-06 2.42927e-06 1194.32 259 1 
0.000261394 0.00042668 8.98419e-05 0.0213326 3.50893e-07 3.50893e-07 1195.38 260 1 
0.000290504 0.000421601 1.05332e-06 0.021082 -2.46852e-07 -2.46852e-07 1186.42 261 1 
-4.40105e-05 0.000424839 1.08111e-05 0.0212493 -2.44364e-06 -2.44364e-06 1185.35 262 1 
-1.8996e-05 0.000422221 6.10767e-06 0.0211152 -1.00682e-06 -1.00682e-06 1198.86 263 1 
5.27614e-06 0.000428602 7.24235e-06 0.0214281 1.67045e-06 1.67045e-06 1173.43 264 1 
4.39892e-05 0.000442798 8.99463e-05 0.0221358 2.3398e-06 2.3398e-06 1199.77 265 1 
3.17482e-05 0.000413511 8.44059e-05 0.0206682 1.86255e-06 1.86255e-06 1159.3 266 1 
7.27486e-05 0.000424611 1.59175e-06 0.0212372 -3.30528e-06 -3.30528e-06 1168.71 267 1 
0.000111214 0.000428774 8.47067e-07 0.0214393 -1.22418e-06 -1.22418e-06 1174.42 268 1 
0.000126892 0.000432223 4.5645e-06 0.021611 -7.26233e-07 -7.26233e-07 1162.26 269 1 
0.000151276 0.000423727 8.39251e-05 0.021196 -3.03614e-06 -3.03614e-06 1168.26 270 1 
0.000216729 0.00044617 5.19954e-06 0.0223088 -1.0057e-06 -1.0057e-06 1159.04 271 1 
0.000240203 0.000449283 2.06444e-06 0.0224618 8.65431e-07 8.65431e-07 1169.62 272 1 
0.000274756 0.000455476 6.29438e-06 0.0227726 6.62416e-07 6.62416e-07 1179.06 273 1 
0.000276311 0.000439359 4.80362e-07 0.0219654 1.83837e-06 1.83837e-06 1185.8 274 1 
-2.97938e-05 0.000455496 1.76803e-05 0.0227732 7.41948e-07 7.41948e-07 1188.56 275 1 
-3.1062e-05 0.000444765 9.20824e-07 0.0222338 1.87739e-06 1.87739e-06 1189.95 276 1 
1.63068e-05 0.000452428 1.01903e-05 0.0226218 2.49731e-07 2.49731e-07 1180.7 277 1 
4.34756e-05 0.000459784 8.95789e-05 0.0229842 3.64621e-06 3.64621e-06 1200.22 278 1 
7.50646e-05 0.000461928 7.57392e-05 0.023094 5.52299e-08 5.52299e-08 1181.28 279 1 
7.55253e-05 0.00044943 9.3134e-06 0.0224754 -2.15643e-06 -2.15643e-06 1178.48 280 1 
0.000113567 0.000447867 8.04565e-05 0.0223941 -9.62635e-07 -9.62635e-07 1180.59 281 1 
0.000104855 0.000442349 5.41198e-06 0.0221186 -1.13116e-06 -1.13116e-06 1179.28 282 1 
0.000135563 0.000437965 6.84988e-06 0.0218974 1.62136e-06 1.62136e-06 1165.74 283 1 
0.000175461 0.000448783 1.10581e-05 0.0224377 1.16319e-06 1.16319e-06 1173.14 284 1 
0.000179378 0.000449516 9.22945e-06 0.0224736 8.67711e-07 8.67711e-07 1177.12 285 1 
0.000110634 1.32571e-05 4.23153e-05 0.000662558 -3.73159e-07 -3.73159e-07 1209.04 286 1 
-8.46177e-05 0.000898788 2.74371e-05 0.0449395 -5.23433e-07 -5.23433e-07 1266.49 287 1 
3.29634e-05 0.000882038 2.77736e-05 0.0441041 -1.17536e-06 -1.17536e-06 1200.73 288 1 
4.82217e-05 0.000877905 3.37942e-05 0.0438988 -1.92098e-06 -1.92098e-06 1213.97 289 1 
0.000199613 1.0308e-05 3.55105e-05 0.000523541 -3.26988e-06 -3.26988e-06 1239.87 290 1 
0.000248853 9.01618e-06 2.43988e-05 0.000447349 3.36647e-07 3.36647e-07 1221.67 291 1 
0.000244936 1.77375e-05 2.61255e-05 0.000886232 -8.94534e-07 -8.94534e-07 1230.58 292 1 
0.000147505 0.000896838 3.06835e-05 0.0448442 -1.7471e-06 -1.7471e-06 1174.93 293 1 
9.27874e-05 0.000896244 2.37651e-05 0.0448105 7.42774e-07 7.42774e-07 1208.82 294 1 
0.000190554 0.000894296 2.23755e-05 0.0447117 2.24801e-06 2.24801e-06 1239.01 295 1 
0.000354455 1.5181e-05 2.78518e-05 0.000762781 -1.20012e-06 -1.20012e-06 1195.87 296 1 
2.29119e-05 2.15093e-05 2.63357e-05 0.00108531 -3.50223e-06 -3.50223e-06 1179.82 297 1 
-9.33506e-05 0.000883378 3.49658e-05 0.0441685 -7.5074e-07 -7.5074e-07 1252.68 298 1 
-6.3852e-05 0.000891964 2.81106e-05 0.0445911 2.26276e-06 2.26276e-06 1231.01 299 1 
-5.2511e-05 0.000891188 2.71622e-05 0.0445512 3.33508e-06 3.33508e-06 1205.84 300 1 
9.77977e-05 3.11764e-05 3.25088e-05 0.00156241 -1.78449e-06 -1.78449e-06 1207.98 301 1 
0.000117857 3.24254e-05 2.04034e-05 0.00161972 6.31781e-07 6.31781e-07 1217.73 302 1 
0.000149384 3.09196e-05 3.03496e-05 0.00154482 5.45915e-07 5.45915e-07 1153.63 303 1 
0.000176159 3.7216e-05 2.95417e-05 0.00186377 -1.20073e-06 -1.20073e-06 1196.71 304 1 
0.0002027 3.42744e-05 1.98129e-05 0.00171169 1.27605e-06 1.27605e-06 1193.31 305 1 
0.000221899 2.89939e-05 2.17496e-05 0.00145463 -2.04223e-06 -2.04223e-06 1216.08 306 1 
0.000252012 3.83058e-05 3.66549e-05 0.00191647 -5.60107e-07 -5.60107e-07 1212.33 307 1 
0.000261814 3.59206e-05 1.60461e-05 0.0017888 1.5129e-06 1.5129e-06 1205.8 308 1 
0.000284766 3.08495e-05 3.05762e-05 0.0015406 1.30184e-06 1.30184e-06 1156.99 309 1 
0.000315604 2.47468e-05 2.16587e-05 0.00123841 2.1231e-08 2.1231e-08 1223.18 310 1 
0.000329641 3.58496e-05 3.147e-05 0.00179366 -9.02609e-07 -9.02609e-07 1235.15 311 1 
3.9956e-06 4.33504e-05 4.00341e-05 0.00216637 5.33193e-07 5.33193e-07 1185.11 312 1 
3.0678e-05 4.05182e-05 2.51455e-05 0.00203117 -2.43329e-06 -2.43329e-06 1197.93 313 1 
7.11084e-05 3.89987e-05 2.05797e-05 0.00194781 7.92325e-07 7.92325e-07 1189.92 314 1 
8.22518e-05 4.69117e-05 2.16984e-05 0.00234425 1.32388e-06 1.32388e-06 1196.72 315 1 
0.000117721 5.08562e-05 3.88847e-05 0.00254799 -1.45672e-06 -1.45672e-06 1204.16 316 1 
0.000146244 5.79071e-05 3.26307e-05 0.00289501 1.09803e-07 1.09803e-07 1181.88 317 1 
0.000179026 5.33723e-05 2.87405e-05 0.00266729 3.46323e-07 3.46323e-07 1216.18 318 1 
0.000208328 6.57543e-05 2.39748e-05 0.00329515 -2.74572e-06 -2.74572e-06 1197.04 319 1 
0.000230037 6.53841e-05 2.55608e-05 0.00326994 -1.65389e-06 -1.65389e-06 1202.85 320 1 
0.000232557 4.83869e-05 4.0175e-05 0.00242129 1.1474e-08 1.1474e-08 1226.24 321 1 
0.000297642 7.28229e-05 2.70201e-05 0.00363668 1.96737e-06 1.96737e-06 1218.53 322 1 
0.000289491 5.94346e-05 2.99185e-05 0.00296865 1.71931e-06 1.71931e-06 1201.39 323 1 
0.000321767 5.36291e-05 2.74639e-05 0.00268381 8.7935e-08 8.7935e-08 1220.07 324 1 
0.000350533 5.13926e-05 2.30084e-05 0.00256888 3.66993e-07 3.66993e-07 1199.2 325 1 
2.37936e-05 6.72814e-05 2.28251e-05 0.00337023 -2.56704e-06 -2.56704e-06 1201.67 326 1 
3.15566e-05 6.14965e-05 2.9409e-05 0.00307559 5.06448e-07 5.06448e-07 1206.43 327 1 
5.28595e-05 5.53247e-05 3.21919e-05 0.00276349 -6.78387e-07 -6.78387e-07 1204.65 328 1 
8.81106e-05 6.50281e-05 1.84513e-05 0.00324551 1.67393e-06 1.67393e-06 1200.31 329 1 
0.00011531 6.18595e-05 2.84995e-05 0.00309786 -1.67603e-06 -1.67603e-06 1201.79 330 1 
0.000174937 7.36682e-05 3.39964e-05 0.00368417 9.44214e-07 9.44214e-07 1221.33 331 1 
0.000221053 9.00876e-05 2.77445e-05 0.00450269 5.84193e-07 5.84193e-07 1198.1 332 1 
0.0002441 8.33895e-05 1.50737e-05 0.00417035 -1.35068e-07 -1.35068e-07 1196.1 333 1 
0.000235776 7.61153e-05 3.8354e-05 0.00380734 -5.33684e-07 -5.33684e-07 1216.58 334 1 
0.000277234 7.96056e-05 2.76303e-05 0.00397743 4.56789e-07 4.56789e-07 1199.76 335 1 
0.000298608 9.00356e-05 2.7577e-05 0.00450125 6.15602e-07 6.15602e-07 1215.31 336 1 
0.00032179 8.62381e-05 1.48784e-05 0.00430989 6.50619e-07 6.50619e-07 1188.45 337 1 
0.000346547 8.31798e-05 2.02918e-05 0.00416212 -2.38224e-06 -2.38224e-06 1190.68 338 1 
2.61756e-06 8.70113e-05 3.24289e-05 0.00435195 -2.52785e-07 -2.52785e-07 1200.81 339 1 
4.99111e-05 9.10441e-05 3.94565e-05 0.00455073 -5.43565e-07 -5.43565e-07 1173.3 340 1 
5.6615e-05 9.09684e-05 1.22526e-05 0.00454684 9.79677e-07 9.79677e-07 1198.22 341 1 
7.90513e-05 8.31315e-05 3.14718e-05 0.00415872 -1.26189e-06 -1.26189e-06 1206.1 342 1 
0.000109483 7.88608e-05 2.46404e-05 0.00394337 2.43259e-07 2.43259e-07 1190.28 343 1 
0.000131613 9.13463e-05 2.74401e-05 0.00456454 8.36141e-07 8.36141e-07 1193.02 344 1 
0.000147898 8.69913e-05 2.5226e-05 0.00434953 8.60394e-07 8.60394e-07 1188.95 345 1 
0.000200855 9.0228e-05 3.76301e-05 0.00451361 -1.62916e-06 -1.62916e-06 1178.83 346 1 
0.000254298 0.000108756 2.89889e-05 0.00543385 1.48243e-06 1.48243e-06 1164.29 347 1 
0.000268218 0.000101176 2.63508e-05 0.00505891 6.20506e-09 6.20506e-09 1175.15 348 1 