ITEM: TIMESTEP
3200
ITEM: NUMBER OF ATOMS
2220
ITEM: BOX BOUNDS xy xz yz pp pp pp
0 0.00039065 3.005e-05
0 0.0009015 0
0 9.015e-05 0
ITEM: ATOMS x y z vx vy vy c_rho_peratom id type 
8.75844e-05 1.21227e-05 8.09675e-07 0.000602834 2.03522e-06 2.03522e-06 1236.52 1 1 
0.000365726 0.000893821 7.91366e-05 0.0447018 -6.49637e-06 -6.49637e-06 1221.64 2 1 
0.000138265 1.13909e-05 6.94148e-06 0.000578306 5.39624e-06 5.39624e-06 1205.71 3 1 
4.38482e-05 0.000887667 1.19301e-06 0.0443726 5.45082e-06 5.45082e-06 1225.5 4 1 
0.000282491 0.000887001 8.68774e-05 0.044334 9.15175e-06 9.15175e-06 1240.53 5 1 
0.000224776 2.19841e-05 8.20939e-05 0.00110217 3.93551e-06 3.93551e-06 1228.13 6 1 
9.67338e-05 0.000896167 8.11701e-06 0.0447977 4.39181e-06 4.39181e-06 1226.17 7 1 
0.000256437 1.05745e-05 8.34929e-05 0.00052525 4.92313e-06 4.92313e-06 1244.78 8 1 
0.000299087 1.16037e-05 2.26536e-06 0.000582694 4.35476e-06 4.35476e-06 1189.21 9 1 
0.000300871 2.62324e-05 8.1936e-05 0.0013345 -3.68777e-06 -3.68777e-06 1172.26 10 1 
0.000333387 1.46688e-05 5.0093e-06 0.000732439 -4.96508e-06 -4.96508e-06 1173.51 11 1 
1.18972e-05 1.58543e-05 5.8004e-06 0.000799551 -3.80367e-06 -3.80367e-06 1165.45 12 1 
0.000254963 0.000893624 3.29192e-06 0.0446762 -2.04857e-06 -2.04857e-06 1190.45 13 1 
4.8423e-05 5.6099e-06 6.31764e-06 0.000270294 7.0841e-06 7.0841e-06 1221.44 14 1 
0.000182829 0.000897727 1.65301e-05 0.0448919 -3.25116e-06 -3.25116e-06 1187.03 15 1 
7.86972e-05 3.93183e-05 8.44698e-05 0.00196043 -4.41002e-06 -4.41002e-06 1210.95 16 1 
0.000114142 3.62649e-05 8.6295e-06 0.00182956 2.55006e-06 2.55006e-06 1205.95 17 1 
0.000128698 3.15082e-05 4.52554e-06 0.00157996 -5.25364e-06 -5.25364e-06 1195.18 18 1 
0.000157052 5.50837e-05 8.73163e-05 0.00275687 -4.90692e-06 -4.90692e-06 1217.4 19 1 
0.000175463 3.19875e-05 1.69136e-05 0.00159635 2.15713e-06 2.15713e-06 1186.36 20 1 
0.000198077 3.73629e-05 1.51656e-06 0.00187488 5.38711e-06 5.38711e-06 1205.65 21 1 
0.000217674 2.88876e-05 5.75182e-06 0.00144824 1.94515e-05 1.94515e-05 1212.44 22 1 
0.000250811 2.98992e-05 8.71192e-05 0.00149897 3.86305e-06 3.86305e-06 1208.87 23 1 
0.000283699 4.8286e-05 1.53253e-05 0.00241119 -7.10022e-06 -7.10022e-06 1204.18 24 1 
0.000299409 4.61908e-05 7.78417e-05 0.00232139 -1.09102e-05 -1.09102e-05 1205.03 25 1 
0.000327848 3.19447e-05 4.29226e-06 0.00160092 7.29843e-06 7.29843e-06 1201.81 26 1 
0.000344273 3.41845e-05 1.57989e-05 0.00170554 -2.67787e-06 -2.67787e-06 1215.11 27 1 
9.45251e-06 3.65011e-05 9.07985e-07 0.00181774 7.33607e-06 7.33607e-06 1195.6 28 1 
4.89234e-05 4.52367e-05 7.06548e-08 0.0022545 -1.70366e-05 -1.70366e-05 1221.9 29 1 
6.21634e-05 3.74896e-05 8.35001e-05 0.00187173 2.05812e-06 2.05812e-06 1218.13 30 1 
0.000115315 6.50555e-05 8.33785e-05 0.00326716 -1.39644e-05 -1.39644e-05 1205.57 31 1 
0.000119398 4.13737e-05 1.35439e-06 0.00207863 -1.63576e-06 -1.63576e-06 1194.14 32 1 
0.000153254 7.15195e-05 3.94401e-06 0.00357458 -5.02382e-06 -5.02382e-06 1193.74 33 1 
0.000162545 4.85725e-05 8.89269e-05 0.00241839 -1.12832e-06 -1.12832e-06 1214.37 34 1 
0.000203385 6.24327e-05 2.69034e-06 0.00312162 1.14546e-05 1.14546e-05 1185.02 35 1 
0.00023133 6.09658e-05 5.57323e-06 0.0030533 -9.2218e-06 -9.2218e-06 1180.67 36 1 
0.000234097 5.85043e-05 3.38642e-06 0.00291659 5.11186e-07 5.11186e-07 1180.73 37 1 
0.0002566 5.39194e-05 2.08509e-06 0.00267997 -5.55462e-06 -5.55462e-06 1176.96 38 1 
0.000296777 5.35424e-05 9.01296e-05 0.00266783 -6.72656e-06 -6.72656e-06 1197.37 39 1 
0.000320951 6.00613e-05 8.66789e-06 0.00300691 -5.53317e-06 -5.53317e-06 1201.96 40 1 
0.000344632 6.16183e-05 4.80013e-06 0.00308737 5.83688e-06 5.83688e-06 1219.1 41 1 
4.7381e-06 6.03366e-05 8.60186e-05 0.00300865 4.70635e-06 4.70635e-06 1205.87 42 1 
3.14539e-05 4.75704e-05 4.58176e-06 0.00240322 -1.58931e-05 -1.58931e-05 1199.49 43 1 
4.44012e-05 5.42414e-05 8.99761e-05 0.00270381 -2.24363e-06 -2.24363e-06 1216.58 44 1 
8.57479e-05 5.74884e-05 2.03102e-06 0.00286142 1.79229e-08 1.79229e-08 1187.53 45 1 
0.000158732 8.25853e-05 2.86463e-06 0.0041139 5.96028e-06 5.96028e-06 1175.2 46 1 
0.000153183 7.16685e-05 8.7488e-05 0.00357149 1.44685e-06 1.44685e-06 1192.74 47 1 
0.000183588 8.03138e-05 8.87106e-05 0.00401483 -1.6494e-05 -1.6494e-05 1189.76 48 1 
0.000223827 8.58885e-05 3.54615e-06 0.00430071 -7.02425e-06 -7.02425e-06 1213.42 49 1 
0.000237494 8.17497e-05 9.9896e-06 0.00407529 -9.93813e-06 -9.93813e-06 1209.52 50 1 
0.000264371 8.57629e-05 7.711e-05 0.00427812 1.42875e-05 1.42875e-05 1190.67 51 1 
0.000304764 9.15461e-05 2.9941e-06 0.00457329 -2.46504e-06 -2.46504e-06 1208.46 52 1 
0.000324519 8.0335e-05 8.6848e-06 0.00401921 2.12883e-06 2.12883e-06 1209.72 53 1 
0.000342841 8.36812e-05 3.63263e-06 0.00417859 7.59456e-06 7.59456e-06 1212.77 54 1 
0.000357427 9.17238e-05 8.83493e-05 0.00458014 -1.14562e-05 -1.14562e-05 1205.01 55 1 
2.55107e-05 8.508e-05 8.48852e-05 0.00427316 -3.63204e-06 -3.63204e-06 1212.74 56 1 
5.05266e-05 8.01912e-05 6.42438e-06 0.00402679 1.40841e-05 1.40841e-05 1197.7 57 1 
8.89847e-05 9.34341e-05 8.72216e-05 0.00466028 2.02256e-06 2.02256e-06 1209.65 58 1 
9.71613e-05 8.99496e-05 3.03707e-06 0.00448266 -1.42407e-06 -1.42407e-06 1205.53 59 1 
0.000110797 7.83924e-05 1.02674e-05 0.00392624 -1.72434e-05 -1.72434e-05 1200.09 60 1 
0.000168117 0.00010721 1.29551e-05 0.00535417 1.11043e-05 1.11043e-05 1213.53 61 1 
0.000197542 0.000106523 5.56738e-06 0.00531005 1.38306e-05 1.38306e-05 1196.52 62 1 
0.000230302 0.000109798 8.316e-05 0.00549173 1.35764e-05 1.35764e-05 1209 63 1 
0.000250962 0.000103502 5.6031e-06 0.00518105 7.97556e-07 7.97556e-07 1213.99 64 1 
0.000286989 0.000104127 8.9932e-06 0.00518331 6.19502e-06 6.19502e-06 1188.89 65 1 
0.000309193 0.000112434 3.26553e-06 0.00561855 1.42273e-06 1.42273e-06 1230.17 66 1 
0.00031395 9.81241e-05 2.87424e-06 0.00490103 -2.57824e-07 -2.57824e-07 1226.36 67 1 
0.000358409 0.000106469 1.543e-06 0.00533506 2.09606e-06 2.09606e-06 1200.3 68 1 
0.000362111 0.000113234 7.27843e-08 0.00565182 -7.11781e-06 -7.11781e-06 1200.08 69 1 
2.64323e-05 0.000100745 8.83128e-05 0.00503542 -4.15553e-06 -4.15553e-06 1226.48 70 1 
5.24359e-05 0.000102864 7.8487e-06 0.00515167 -4.5317e-06 -4.5317e-06 1192.37 71 1 
9.58623e-05 0.00011402 3.36969e-06 0.00569396 8.00245e-06 8.00245e-06 1205.7 72 1 
0.000116197 0.00011029 1.93283e-06 0.00552198 3.54335e-06 3.54335e-06 1172.57 73 1 
0.000142493 0.00011402 6.27509e-06 0.00571697 -2.79253e-05 -2.79253e-05 1186.53 74 1 
0.000156167 0.000108189 5.49957e-06 0.00542029 -7.66373e-06 -7.66373e-06 1194.78 75 1 
0.000196081 0.000120367 7.12937e-06 0.00601654 -1.11478e-05 -1.11478e-05 1182.91 76 1 
0.000245662 0.000126375 8.78226e-05 0.00631374 1.03029e-07 1.03029e-07 1182.64 77 1 
0.000266774 0.000129838 1.00881e-05 0.00649604 5.49685e-07 5.49685e-07 1179.21 78 1 
0.000299486 0.000130968 6.99881e-06 0.00654792 -1.72033e-06 -1.72033e-06 1220.59 79 1 
0.000318542 0.00013286 3.69518e-06 0.00664063 4.14891e-06 4.14891e-06 1185.46 80 1 
0.000341336 0.000132882 4.16901e-06 0.0066432 -1.49491e-06 -1.49491e-06 1162.84 81 1 
1.38079e-05 0.000139021 5.32087e-06 0.00694291 -4.67892e-06 -4.67892e-06 1194.28 82 1 
3.25071e-05 0.000131753 8.9919e-05 0.00658256 2.35816e-05 2.35816e-05 1200.08 83 1 
6.69219e-05 0.000128176 1.30819e-05 0.00640116 -6.0497e-06 -6.0497e-06 1210.36 84 1 
6.89298e-05 0.000130804 2.56026e-06 0.00653631 -2.3947e-07 -2.3947e-07 1207.91 85 1 
0.000100292 0.000133184 8.76712e-05 0.00665513 -2.49381e-06 -2.49381e-06 1205.74 86 1 
0.000122696 0.000128829 8.67653e-07 0.00643153 4.93702e-07 4.93702e-07 1188.02 87 1 
0.00016033 0.000132061 8.86923e-05 0.00658985 1.27911e-05 1.27911e-05 1198.38 88 1 
0.000179455 0.000128849 8.32646e-05 0.00644073 -1.74361e-05 -1.74361e-05 1188.09 89 1 
0.000233674 0.000141234 1.42768e-06 0.00708609 -1.85957e-05 -1.85957e-05 1179.97 90 1 
0.000252622 0.000148165 1.56978e-05 0.00741871 -1.17192e-05 -1.17192e-05 1183.18 91 1 
0.000296563 0.00015832 8.55303e-05 0.00791589 1.27974e-05 1.27974e-05 1189.52 92 1 
0.000304679 0.000162454 4.47507e-06 0.00810948 2.10825e-05 2.10825e-05 1176.73 93 1 
0.000332549 0.000152107 8.93384e-05 0.00760921 7.9587e-06 7.9587e-06 1157.75 94 1 
0.000350526 0.000151088 3.83498e-06 0.00754985 -2.20399e-05 -2.20399e-05 1182.08 95 1 
2.65539e-05 0.000143263 4.00276e-06 0.00716616 -3.41945e-06 -3.41945e-06 1191.66 96 1 
6.07248e-05 0.000168269 2.66148e-06 0.00841296 -4.01848e-06 -4.01848e-06 1209.99 97 1 
6.73496e-05 0.000155729 8.38113e-05 0.00777418 9.76268e-06 9.76268e-06 1204.8 98 1 
8.55744e-05 0.000152912 8.43724e-05 0.00764012 1.51286e-05 1.51286e-05 1220.1 99 1 
0.000117762 0.000156131 8.67626e-05 0.00780294 -2.80422e-07 -2.80422e-07 1176.62 100 1 
0.000141011 0.000150864 4.47827e-06 0.00754779 -3.87787e-06 -3.87787e-06 1189.57 101 1 
0.000156096 0.000155533 8.0988e-05 0.0077715 8.16091e-06 8.16091e-06 1195.34 102 1 
0.00018146 0.000154811 8.88621e-05 0.00772873 1.95029e-06 1.95029e-06 1188.53 103 1 
0.000208893 0.000152115 7.90261e-05 0.00760558 4.8677e-06 4.8677e-06 1167.31 104 1 
0.000245701 0.000161627 8.94426e-05 0.00809079 3.15513e-06 3.15513e-06 1185.99 105 1 
0.000290455 0.00017935 8.03102e-06 0.00896081 -2.59918e-06 -2.59918e-06 1175.51 106 1 
0.000326732 0.000172256 8.39587e-05 0.0086045 -1.2187e-05 -1.2187e-05 1168.98 107 1 
0.000354457 0.000179308 2.72122e-07 0.00895155 1.52094e-05 1.52094e-05 1203.09 108 1 
0.000364754 0.000179509 8.46888e-05 0.00897776 -7.60693e-06 -7.60693e-06 1196.92 109 1 
4.13544e-05 0.000180208 1.23049e-05 0.00900897 -1.2748e-05 -1.2748e-05 1190.98 110 1 
6.77266e-05 0.000189043 7.89558e-06 0.00944669 4.32273e-06 4.32273e-06 1214.95 111 1 
0.000101578 0.000188356 5.48831e-06 0.00943664 -6.67852e-06 -6.67852e-06 1213.04 112 1 
0.000109388 0.000179344 1.57003e-07 0.00896853 -4.21308e-06 -4.21308e-06 1201.18 113 1 
0.000132733 0.000189017 8.23809e-05 0.00946865 -9.63272e-06 -9.63272e-06 1203.35 114 1 
0.000163271 0.000185199 8.64458e-05 0.00926773 -2.78988e-06 -2.78988e-06 1188.73 115 1 
0.000178563 0.000179369 1.17478e-05 0.00895827 8.13427e-06 8.13427e-06 1186.01 116 1 
0.000201666 0.000171508 1.10969e-05 0.00857865 5.68278e-06 5.68278e-06 1194.88 117 1 
0.000236749 0.000183995 8.82274e-05 0.00919699 1.22115e-05 1.22115e-05 1208.16 118 1 
0.000262733 0.000181731 1.27765e-05 0.00909627 1.32819e-05 1.32819e-05 1186.66 119 1 
0.000262617 0.00017697 5.02865e-06 0.00883781 1.25104e-06 1.25104e-06 1197.97 120 1 
0.000344505 0.000203929 8.89711e-05 0.0102046 -3.5866e-06 -3.5866e-06 1197.39 121 1 
0.000359573 0.000202448 9.44053e-06 0.0101184 1.76779e-05 1.76779e-05 1203.25 122 1 
3.28622e-05 0.000205089 3.36498e-06 0.0102722 -1.53365e-05 -1.53365e-05 1184.5 123 1 
6.1625e-05 0.000210725 8.196e-07 0.0105436 8.98127e-06 8.98127e-06 1206.18 124 1 
9.39185e-05 0.000211607 1.40968e-05 0.0105659 1.13476e-05 1.13476e-05 1195.45 125 1 
9.5059e-05 0.000207462 1.11846e-05 0.0103714 -2.34647e-06 -2.34647e-06 1199.72 126 1 
0.000142522 0.000212264 8.99151e-05 0.0106288 1.30391e-05 1.30391e-05 1198.57 127 1 
0.000135095 0.000190361 8.81945e-05 0.00952785 1.60091e-06 1.60091e-06 1209.3 128 1 
0.000175854 0.000201655 1.64322e-05 0.0100718 -5.11314e-06 -5.11314e-06 1168.2 129 1 
0.000201472 0.000211485 3.96401e-06 0.0105801 1.82168e-07 1.82168e-07 1204.26 130 1 
0.000231402 0.000205719 8.80528e-05 0.0102924 -1.22124e-05 -1.22124e-05 1211.07 131 1 
0.000241642 0.000204049 8.42998e-05 0.0102106 9.40037e-07 9.40037e-07 1225.83 132 1 
0.00027587 0.000207625 3.02409e-06 0.0103854 -1.02954e-05 -1.02954e-05 1185.81 133 1 
0.000316481 0.000219886 2.82553e-06 0.0109864 -3.68975e-06 -3.68975e-06 1194.33 134 1 
0.000329817 0.00020245 7.96699e-05 0.0101162 -6.8156e-06 -6.8156e-06 1196.75 135 1 
3.29616e-05 0.00023315 2.90385e-06 0.0116512 4.36598e-06 4.36598e-06 1192.15 136 1 
4.37176e-05 0.000227106 1.4306e-05 0.0113534 9.42884e-06 9.42884e-06 1185.33 137 1 
7.54273e-05 0.000224813 8.77067e-07 0.01125 -6.37395e-06 -6.37395e-06 1210.99 138 1 
0.000108688 0.000239316 2.55935e-06 0.011961 -5.58022e-06 -5.58022e-06 1199.54 139 1 
0.000136206 0.000230921 7.85403e-06 0.0115515 -1.33107e-05 -1.33107e-05 1184.57 140 1 
0.000139987 0.000220387 8.21884e-05 0.0110044 1.6803e-05 1.6803e-05 1194.42 141 1 
0.000168647 0.000229718 3.72037e-06 0.0114808 7.45068e-06 7.45068e-06 1180.3 142 1 
0.000199131 0.00023126 9.00099e-05 0.0115582 -1.35955e-05 -1.35955e-05 1218.19 143 1 
0.000199672 0.00022132 6.78093e-06 0.0110615 1.2706e-05 1.2706e-05 1206.16 144 1 
0.000234332 0.000224821 8.59565e-05 0.0112517 -1.68373e-06 -1.68373e-06 1194.41 145 1 
0.000263172 0.000228709 2.00191e-06 0.0114385 -2.80072e-06 -2.80072e-06 1206.25 146 1 
0.000283194 0.000226138 6.7807e-06 0.0112991 9.04539e-06 9.04539e-06 1204.85 147 1 
0.000320944 0.0002256 7.90447e-06 0.0112629 6.61743e-06 6.61743e-06 1177.29 148 1 
0.000328028 0.000215499 8.61887e-05 0.0107905 -1.51792e-05 -1.51792e-05 1192.4 149 1 
0.000360277 0.000230394 8.84092e-05 0.0115215 -5.6994e-06 -5.6994e-06 1176.45 150 1 
6.62325e-05 0.000260111 6.97965e-06 0.0130048 2.20897e-06 2.20897e-06 1166.07 151 1 
8.92834e-05 0.000257901 5.94218e-06 0.0128841 1.11838e-05 1.11838e-05 1190.33 152 1 
0.000119717 0.00025435 8.10756e-05 0.0127203 -1.36308e-05 -1.36308e-05 1186.17 153 1 
0.00012297 0.000252179 8.83781e-05 0.0126129 -7.38783e-06 -7.38783e-06 1188.56 154 1 
0.000154046 0.00024729 8.85536e-05 0.0123634 4.40587e-06 4.40587e-06 1173.01 155 1 
0.000189281 0.000256604 8.65608e-06 0.0128129 1.65145e-05 1.65145e-05 1188.81 156 1 
0.000224855 0.000263205 8.44475e-05 0.0131744 1.07291e-06 1.07291e-06 1195.3 157 1 
0.000242672 0.000265921 1.60999e-06 0.0132996 -1.18652e-05 -1.18652e-05 1209.96 158 1 
0.00025012 0.000247912 8.49151e-06 0.0124022 -1.05114e-05 -1.05114e-05 1215.24 159 1 
0.000278191 0.000248334 7.89383e-05 0.0124158 6.14168e-06 6.14168e-06 1199.02 160 1 
0.000318715 0.000263067 3.58299e-06 0.0131491 8.36455e-06 8.36455e-06 1166.43 161 1 
0.000350971 0.000267404 8.5629e-05 0.0133582 7.76204e-06 7.76204e-06 1200.94 162 1 
0.000362221 0.000255516 6.25615e-06 0.0127807 2.48462e-06 2.48462e-06 1197.23 163 1 
1.3842e-05 0.000252302 7.35892e-06 0.0126117 -7.78971e-07 -7.78971e-07 1208.05 164 1 
4.40807e-05 0.000248613 4.76858e-06 0.0124405 -1.51447e-06 -1.51447e-06 1190.77 165 1 
0.000115436 0.000285738 7.91345e-05 0.0142863 2.58402e-06 2.58402e-06 1190.6 166 1 
0.000126148 0.00027371 3.88292e-06 0.0136724 2.01371e-07 2.01371e-07 1178.99 167 1 
0.000160665 0.000280342 5.21245e-06 0.0140269 -1.11475e-05 -1.11475e-05 1192.39 168 1 
0.000164739 0.00026719 6.98689e-06 0.0133656 -2.07432e-07 -2.07432e-07 1193.27 169 1 
0.000199331 0.000280527 8.86216e-06 0.0140173 -2.6492e-06 -2.6492e-06 1166.82 170 1 
0.000224821 0.000274807 5.84927e-06 0.0137523 -1.05835e-05 -1.05835e-05 1207.07 171 1 
0.000238542 0.000267231 8.22649e-05 0.0133638 -1.05355e-05 -1.05355e-05 1205.14 172 1 
0.000274035 0.000278943 1.06022e-05 0.0139575 4.27348e-06 4.27348e-06 1211.51 173 1 
0.000312932 0.00028599 8.85551e-05 0.0143128 2.7795e-06 2.7795e-06 1211.03 174 1 
0.000325589 0.000283554 2.75259e-06 0.0141791 -5.27402e-06 -5.27402e-06 1197.71 175 1 
0.000359935 0.000276505 1.66071e-05 0.0138237 -3.07122e-06 -3.07122e-06 1185.7 176 1 
0.000369623 0.000273886 1.07046e-06 0.0136937 -2.53567e-06 -2.53567e-06 1190.69 177 1 
3.93633e-05 0.000289535 6.35727e-07 0.0144731 -1.00002e-05 -1.00002e-05 1160.43 178 1 
7.08745e-05 0.000288053 2.46375e-06 0.0143792 1.0449e-05 1.0449e-05 1177.44 179 1 
7.62804e-05 0.000276148 8.60319e-05 0.0138131 -7.23237e-06 -7.23237e-06 1169.74 180 1 
0.00016119 0.000309924 4.5102e-06 0.0154805 1.53468e-05 1.53468e-05 1189.35 181 1 
0.000150695 0.000284649 8.83951e-05 0.0142309 6.95921e-06 6.95921e-06 1188.31 182 1 
0.00020235 0.000308124 8.14723e-06 0.0154082 7.75359e-06 7.75359e-06 1176.43 183 1 
0.000215615 0.000302328 3.90347e-06 0.0151032 -5.6628e-06 -5.6628e-06 1190.88 184 1 
0.000243288 0.000296994 1.82845e-05 0.0148604 6.61373e-06 6.61373e-06 1141.43 185 1 
0.000249538 0.00029707 8.46047e-05 0.0148549 7.41584e-06 7.41584e-06 1167.03 186 1 
0.000275832 0.000298057 8.77325e-05 0.0149094 6.39815e-06 6.39815e-06 1183.35 187 1 
0.000307724 0.00029607 7.90302e-05 0.0147944 2.62109e-06 2.62109e-06 1192.28 188 1 
0.000334954 0.000305476 1.6395e-05 0.0152642 1.03226e-05 1.03226e-05 1158.81 189 1 
0.000363886 0.000300199 8.64277e-05 0.0150359 -1.33688e-05 -1.33688e-05 1194.15 190 1 
3.79166e-05 0.000308778 2.2304e-06 0.0154374 4.77624e-06 4.77624e-06 1189.79 191 1 
5.99177e-05 0.000307104 8.73812e-05 0.0153558 -1.91644e-06 -1.91644e-06 1185.85 192 1 
9.35682e-05 0.000317078 9.70429e-06 0.0158501 3.6564e-06 3.6564e-06 1202.82 193 1 
9.46607e-05 0.000299259 8.06066e-07 0.0149649 4.30313e-07 4.30313e-07 1200.56 194 1 
0.00013816 0.000314564 1.91865e-06 0.0157301 1.02434e-05 1.02434e-05 1170.06 195 1 
0.000188696 0.00033162 8.67299e-05 0.0165954 -1.37867e-05 -1.37867e-05 1186.91 196 1 
0.000221334 0.000329666 1.46741e-05 0.0164879 2.67004e-07 2.67004e-07 1154.47 197 1 
0.000236308 0.000323436 8.80137e-05 0.0161651 -6.76381e-06 -6.76381e-06 1143.68 198 1 
0.000251062 0.000324398 8.967e-05 0.016223 5.57764e-06 5.57764e-06 1149.14 199 1 
0.000279843 0.000326512 2.43714e-06 0.0163102 6.33663e-07 6.33663e-07 1152.97 200 1 
0.000310658 0.000325215 5.06365e-06 0.0162653 -1.16794e-05 -1.16794e-05 1151.47 201 1 
0.000342323 0.000333491 8.85679e-05 0.0167008 -1.64829e-05 -1.64829e-05 1193.54 202 1 
0.000356924 0.000327774 8.40175e-05 0.0163827 8.26505e-06 8.26505e-06 1208.23 203 1 
1.43188e-05 0.000331001 5.76404e-06 0.0165464 6.37735e-06 6.37735e-06 1209.37 204 1 
3.41896e-05 0.000323985 5.82665e-07 0.0161952 6.86077e-06 6.86077e-06 1187.73 205 1 
6.88603e-05 0.000323736 7.55386e-06 0.0161984 5.35709e-06 5.35709e-06 1166.69 206 1 
8.79376e-05 0.000323375 1.04904e-05 0.0161748 1.34208e-06 1.34208e-06 1188.44 207 1 
0.000119499 0.000332191 1.33486e-05 0.0166095 5.37556e-06 5.37556e-06 1195.67 208 1 
0.000143007 0.000328714 8.88326e-05 0.016437 -5.06258e-06 -5.06258e-06 1188.39 209 1 
0.00016832 0.000328418 2.21475e-06 0.016421 -2.48397e-07 -2.48397e-07 1206.37 210 1 
0.00023641 0.000349333 1.17457e-05 0.0174545 8.55438e-06 8.55438e-06 1201.98 211 1 
0.00025078 0.000349851 1.66566e-06 0.0174829 4.59593e-06 4.59593e-06 1202.12 212 1 
0.000276768 0.000356568 8.99088e-05 0.0178268 -8.49841e-06 -8.49841e-06 1190.14 213 1 
0.000295431 0.000352176 1.10888e-06 0.017601 1.61487e-06 1.61487e-06 1160.67 214 1 
0.000316468 0.000348699 8.97247e-05 0.0174303 -3.04385e-06 -3.04385e-06 1156.64 215 1 
0.000347088 0.000347908 7.82833e-07 0.0174009 6.80275e-06 6.80275e-06 1184.71 216 1 
0.000370709 0.000357893 4.21949e-06 0.0178944 3.18811e-06 3.18811e-06 1176.52 217 1 
3.8714e-05 0.000350225 5.15943e-06 0.0175121 -6.56894e-06 -6.56894e-06 1171.81 218 1 
6.05904e-05 0.000348433 2.52861e-07 0.0174122 2.83203e-06 2.83203e-06 1176.15 219 1 
7.50057e-05 0.00035434 5.79149e-06 0.0176989 1.24207e-05 1.24207e-05 1180.64 220 1 
0.00010554 0.000350194 6.56964e-06 0.0175191 -1.10135e-05 -1.10135e-05 1208.36 221 1 
0.000141192 0.000347186 8.41645e-05 0.0173467 5.75544e-07 5.75544e-07 1175.15 222 1 
0.000167378 0.000352969 5.65082e-06 0.0176587 1.15034e-05 1.15034e-05 1181.12 223 1 
0.000184482 0.000354836 8.41681e-06 0.0177415 -5.67896e-07 -5.67896e-07 1171.06 224 1 
0.000194673 0.000341694 3.9645e-06 0.0170748 6.88944e-06 6.88944e-06 1171.92 225 1 
0.000261217 0.000364965 1.95089e-06 0.0182556 7.28487e-06 7.28487e-06 1201.14 226 1 
0.000312866 0.000384001 1.31839e-05 0.0191971 9.19673e-06 9.19673e-06 1189.55 227 1 
0.000318463 0.000377976 3.96226e-06 0.0189 1.22356e-05 1.22356e-05 1189.32 228 1 
0.000341623 0.000376305 8.25665e-05 0.0188159 -2.61052e-06 -2.61052e-06 1170.28 229 1 
0.000369031 0.000376724 1.90183e-05 0.018837 -6.88203e-06 -6.88203e-06 1181.58 230 1 
3.46181e-05 0.000378024 5.91503e-06 0.0189019 -2.25557e-06 -2.25557e-06 1186.35 231 1 
4.00486e-05 0.000373421 8.90573e-05 0.0186693 -5.76468e-06 -5.76468e-06 1194.03 232 1 
7.09894e-05 0.000372552 1.59486e-05 0.0186296 1.86496e-06 1.86496e-06 1192.53 233 1 
0.000107625 0.000378072 5.29233e-06 0.0188955 1.42964e-05 1.42964e-05 1180.7 234 1 
0.000127133 0.000376364 7.50895e-06 0.0188257 -4.06991e-09 -4.06991e-09 1162.16 235 1 
0.000159331 0.000378679 2.91286e-06 0.0189225 -8.01118e-07 -8.01118e-07 1172.26 236 1 
0.000174901 0.000381801 8.77299e-05 0.0190915 -5.26279e-06 -5.26279e-06 1199.42 237 1 
0.000207717 0.000379695 8.37356e-05 0.0189875 -3.62786e-06 -3.62786e-06 1170.77 238 1 
0.00021298 0.00036927 8.82823e-06 0.0184544 1.54209e-05 1.54209e-05 1168.84 239 1 
0.000258883 0.00037721 5.15635e-06 0.0188426 -3.02853e-06 -3.02853e-06 1177.82 240 1 
0.000320752 0.000409344 7.83199e-05 0.0204745 2.91673e-06 2.91673e-06 1190.24 241 1 
0.000322343 0.000398534 8.29508e-05 0.0199216 7.08545e-06 7.08545e-06 1180.8 242 1 
0.000358379 0.000401385 2.56367e-06 0.0200802 -4.23918e-06 -4.23918e-06 1173.63 243 1 
3.36086e-05 0.000402001 9.44285e-06 0.0201005 -9.76548e-06 -9.76548e-06 1168.65 244 1 
4.98964e-05 0.000408994 7.51779e-05 0.0204378 -2.36508e-05 -2.36508e-05 1155.38 245 1 
6.31945e-05 0.000402873 8.87308e-05 0.0201375 -5.04003e-07 -5.04003e-07 1157.96 246 1 
8.96379e-05 0.000395544 1.45947e-08 0.0197711 1.2471e-05 1.2471e-05 1172.63 247 1 
0.000131645 0.000408133 8.91503e-05 0.020401 1.07149e-05 1.07149e-05 1166.91 248 1 
0.000142562 0.000397017 3.77634e-06 0.0198585 -2.64285e-06 -2.64285e-06 1163.44 249 1 
0.000166096 0.000401292 8.39709e-05 0.0200567 -1.11057e-05 -1.11057e-05 1169.79 250 1 
0.000175217 0.000400719 3.11886e-06 0.0200432 4.77331e-06 4.77331e-06 1179.8 251 1 
0.000224101 0.000400009 1.97409e-06 0.0199949 -4.14672e-06 -4.14672e-06 1192.15 252 1 
0.000249906 0.000404727 1.20392e-05 0.0202123 6.78123e-06 6.78123e-06 1183.06 253 1 
0.000273588 0.000406076 9.69907e-06 0.0202963 8.03412e-06 8.03412e-06 1145.67 254 1 
0.000297935 0.000410508 3.34036e-06 0.0205383 -3.22058e-07 -3.22058e-07 1175.51 255 1 
0.000359862 0.000422974 1.16203e-05 0.021143 -1.51536e-05 -1.51536e-05 1177.76 256 1 
0.000371668 0.000415135 4.47268e-06 0.0207548 3.44635e-06 3.44635e-06 1184.64 257 1 
3.10535e-05 0.000419143 4.74004e-06 0.0209603 3.63416e-06 3.63416e-06 1167.74 258 1 
8.1813e-05 0.000434499 2.72483e-07 0.0217361 -7.85168e-07 -7.85168e-07 1187.04 259 1 
8.45609e-05 0.000425487 8.9659e-05 0.0212712 -9.4504e-06 -9.4504e-06 1183.32 260 1 
0.000115187 0.000425551 8.66653e-05 0.0212857 -1.49701e-05 -1.49701e-05 1184.11 261 1 
0.000139061 0.000423504 1.1293e-05 0.0211688 1.53406e-05 1.53406e-05 1187.23 262 1 
0.000164905 0.000422666 4.3223e-06 0.0211234 1.00836e-06 1.00836e-06 1161 263 1 
0.000191575 0.000428705 1.17697e-05 0.0214241 6.29582e-06 6.29582e-06 1171.44 264 1 
0.000220619 0.000440795 8.66814e-05 0.0220256 1.09704e-05 1.09704e-05 1180.87 265 1 
0.00021809 0.000416713 8.73234e-05 0.0208423 -4.12929e-06 -4.12929e-06 1186.63 266 1 
0.000256238 0.000424147 1.12371e-06 0.021205 -2.64861e-06 -2.64861e-06 1170.33 267 1 
0.000289778 0.000431398 4.61676e-07 0.0215733 4.04104e-06 4.04104e-06 1189.12 268 1 
0.000308626 0.000431872 1.44983e-06 0.0215748 1.92041e-05 1.92041e-05 1193.16 269 1 
0.000337326 0.000423747 8.73671e-05 0.021192 -7.44756e-07 -7.44756e-07 1173.62 270 1 
3.18969e-05 0.000452826 7.84584e-06 0.022625 1.30666e-06 1.30666e-06 1176.53 271 1 
5.30987e-05 0.000445434 4.06732e-06 0.0222835 -1.47744e-06 -1.47744e-06 1167.14 272 1 
8.56144e-05 0.000457446 5.26803e-06 0.0228792 5.28878e-06 5.28878e-06 1198.6 273 1 
8.88914e-05 0.000440908 3.52143e-06 0.0220477 -7.16472e-06 -7.16472e-06 1198.86 274 1 
0.000138943 0.000456428 1.48006e-05 0.0228166 1.72301e-06 1.72301e-06 1178.34 275 1 
0.00014325 0.000443128 1.18129e-06 0.0221576 6.46499e-06 6.46499e-06 1163.83 276 1 
0.00018696 0.00044901 7.37277e-06 0.0224482 6.0741e-06 6.0741e-06 1179.52 277 1 
0.000214311 0.000456129 1.65253e-06 0.0228134 -4.00506e-06 -4.00506e-06 1157.53 278 1 
0.000238755 0.000462252 7.83205e-05 0.0231162 -1.05744e-05 -1.05744e-05 1162.42 279 1 
0.000250912 0.000446295 8.03336e-06 0.0223309 -2.11919e-05 -2.11919e-05 1182.18 280 1 
0.000288828 0.000450278 8.07682e-05 0.0225112 1.51052e-05 1.51052e-05 1180.09 281 1 
0.000279821 0.000439552 3.21631e-06 0.0219824 5.83326e-06 5.83326e-06 1187.92 282 1 
0.000311423 0.000437619 2.69662e-06 0.0218814 -1.01065e-06 -1.01065e-06 1188.61 283 1 
0.000350334 0.000443571 1.13189e-05 0.0221822 5.95049e-06 5.95049e-06 1200.33 284 1 
0.000354137 0.000447883 8.62128e-06 0.022404 1.02897e-05 1.02897e-05 1206.37 285 1 
8.67414e-05 1.10676e-05 3.99166e-05 0.000546714 -1.38332e-05 -1.38332e-05 1218.82 286 1 
0.000294904 0.000901434 2.94392e-05 0.0450718 2.43871e-06 2.43871e-06 1267.6 287 1 
3.57593e-05 0.000883903 2.73854e-05 0.0441921 1.52784e-05 1.52784e-05 1197.37 288 1 
4.9348e-05 0.000879177 3.17064e-05 0.0439541 2.51137e-06 2.51137e-06 1213.14 289 1 
0.000178572 1.18281e-05 3.51436e-05 0.000589368 -9.84461e-06 -9.84461e-06 1132.16 290 1 
0.000233493 8.89172e-06 2.48637e-05 0.000459949 -8.38313e-06 -8.38313e-06 1211.89 291 1 
0.000227484 2.10945e-05 2.82574e-05 0.00104318 -1.24117e-06 -1.24117e-06 1197.6 292 1 
0.000149489 0.000894083 2.66415e-05 0.0447015 4.42184e-06 4.42184e-06 1177.7 293 1 
9.29886e-05 0.000900049 3.01607e-05 0.0449958 -4.66051e-06 -4.66051e-06 1279.12 294 1 
0.000198474 0.000890855 2.60763e-05 0.0445405 -3.58772e-06 -3.58772e-06 1166.42 295 1 
0.000336433 1.40086e-05 2.98852e-05 0.000691774 -3.36004e-06 -3.36004e-06 1185.05 296 1 
6.63564e-06 2.22213e-05 2.91947e-05 0.00112083 1.63773e-06 1.63773e-06 1176.61 297 1 
0.000266956 0.000888489 3.07188e-05 0.0444215 6.61936e-06 6.61936e-06 1212.7 298 1 
0.00030077 0.000892714 2.87225e-05 0.0446423 -6.69903e-06 -6.69903e-06 1249.94 299 1 
0.000309492 0.00089203 2.57108e-05 0.0445864 7.88716e-06 7.88716e-06 1235.69 300 1 
7.73815e-05 2.8857e-05 3.15964e-05 0.00145141 -8.30435e-06 -8.30435e-06 1273.51 301 1 
0.000101296 3.37511e-05 2.57756e-05 0.00169884 8.82077e-06 8.82077e-06 1220.74 302 1 
0.000131694 3.15942e-05 3.17114e-05 0.00158203 4.86341e-06 4.86341e-06 1188.05 303 1 
0.000159313 3.82334e-05 3.11418e-05 0.00191365 2.84162e-06 2.84162e-06 1195.67 304 1 
0.000182835 3.4793e-05 1.73158e-05 0.00173159 8.57794e-06 8.57794e-06 1189.99 305 1 
0.000203412 2.96259e-05 2.15693e-05 0.00148738 -1.23834e-05 -1.23834e-05 1187.83 306 1 
0.000229788 4.21529e-05 3.37614e-05 0.00209322 6.73355e-06 6.73355e-06 1196.95 307 1 
0.000248425 3.90398e-05 2.0603e-05 0.00194886 -1.11758e-05 -1.11758e-05 1180.02 308 1 
0.000272949 3.25739e-05 3.01887e-05 0.00162887 -1.56594e-06 -1.56594e-06 1224.14 309 1 
0.000299033 2.58949e-05 2.3565e-05 0.00129314 -2.92779e-06 -2.92779e-06 1216.52 310 1 
0.000312494 3.70213e-05 3.39239e-05 0.00184684 -3.94034e-06 -3.94034e-06 1218.65 311 1 
0.000347202 4.11509e-05 3.6353e-05 0.00206791 1.78972e-07 1.78972e-07 1221.86 312 1 
1.10415e-05 4.39095e-05 2.40561e-05 0.00220544 -2.05959e-06 -2.05959e-06 1199 313 1 
5.52895e-05 3.58317e-05 2.46132e-05 0.0017734 9.66891e-06 9.66891e-06 1254.08 314 1 
6.58859e-05 4.65289e-05 2.27391e-05 0.00231405 5.97688e-06 5.97688e-06 1245.45 315 1 
9.65957e-05 4.81266e-05 3.52109e-05 0.00240251 1.03465e-06 1.03465e-06 1212.48 316 1 
0.000123343 5.76927e-05 3.33276e-05 0.0028809 1.94241e-05 1.94241e-05 1220.28 317 1 
0.00015184 5.08374e-05 3.12081e-05 0.00254963 1.48549e-05 1.48549e-05 1203.61 318 1 
0.000182151 6.28869e-05 2.56585e-05 0.00313471 -5.87567e-06 -5.87567e-06 1193.44 319 1 
0.000202277 6.34192e-05 2.22065e-05 0.00315586 -3.50158e-06 -3.50158e-06 1205.93 320 1 
0.000211852 5.09628e-05 3.4391e-05 0.00255483 -1.44458e-05 -1.44458e-05 1217.8 321 1 
0.000266268 6.75643e-05 2.89981e-05 0.00336847 -1.05817e-05 -1.05817e-05 1216.35 322 1 
0.000270546 5.63491e-05 2.92393e-05 0.00281546 6.84615e-06 6.84615e-06 1217.82 323 1 
0.000300746 5.5489e-05 2.72704e-05 0.00277484 5.66537e-07 5.66537e-07 1210.86 324 1 
0.000330739 5.09191e-05 2.61886e-05 0.00254369 -6.10105e-06 -6.10105e-06 1215.79 325 1 
0.000355191 6.71514e-05 2.31894e-05 0.00334461 -4.0222e-07 -4.0222e-07 1201.08 326 1 
8.32069e-06 5.87131e-05 3.18496e-05 0.00293898 2.57833e-06 2.57833e-06 1200.99 327 1 
3.34187e-05 5.9353e-05 3.17148e-05 0.00295952 1.0523e-05 1.0523e-05 1201.14 328 1 
5.51605e-05 6.18983e-05 1.80911e-05 0.00309868 6.42023e-06 6.42023e-06 1214.97 329 1 
8.61772e-05 6.3493e-05 2.79433e-05 0.00316689 1.63236e-05 1.63236e-05 1203.05 330 1 
0.000143236 7.30228e-05 3.34681e-05 0.00365209 6.13802e-07 6.13802e-07 1195.9 331 1 
0.000182156 9.3165e-05 3.03035e-05 0.00467751 1.46016e-05 1.46016e-05 1209.57 332 1 
0.000203053 8.46411e-05 1.95535e-05 0.00423851 -5.06287e-06 -5.06287e-06 1203.73 333 1 
0.000202992 8.02352e-05 3.70147e-05 0.00401556 1.73304e-06 1.73304e-06 1217.09 334 1 
0.000245077 7.90043e-05 2.58441e-05 0.00395609 2.31465e-06 2.31465e-06 1194.54 335 1 
0.000265785 8.40854e-05 2.70681e-05 0.00420533 1.08931e-05 1.08931e-05 1202.35 336 1 
0.000286665 8.17517e-05 1.73928e-05 0.00409525 2.52836e-06 2.52836e-06 1171.76 337 1 
0.000312076 8.17618e-05 1.86107e-05 0.00409285 -3.63968e-06 -3.63968e-06 1182.68 338 1 
0.000330961 8.60737e-05 3.51462e-05 0.00430425 2.14398e-06 2.14398e-06 1201.51 339 1 
1.07694e-05 9.01681e-05 3.56996e-05 0.00450442 1.56002e-05 1.56002e-05 1182.81 340 1 
2.16863e-05 8.89089e-05 1.23133e-05 0.00445047 -1.20417e-05 -1.20417e-05 1205.82 341 1 
4.69942e-05 8.19254e-05 3.23224e-05 0.00409149 -4.07722e-09 -4.07722e-09 1211.89 342 1 
7.38048e-05 8.56525e-05 2.71623e-05 0.00428538 -6.58657e-06 -6.58657e-06 1202.93 343 1 
9.36895e-05 8.66255e-05 2.92667e-05 0.00433422 -1.19279e-05 -1.19279e-05 1208.05 344 1 
0.000113891 8.34766e-05 2.29617e-05 0.00417318 -7.96695e-06 -7.96695e-06 1205.31 345 1 
0.00016576 9.48084e-05 3.84993e-05 0.00473404 4.42796e-06 4.42796e-06 1195.02 346 1 
0.000209531 0.000109405 2.96817e-05 0.00545669 8.58976e-06 8.58976e-06 1184.3 347 1 
0.000230301 0.000103128 2.52242e-05 0.005148 -1.74165e-06 -1.74165e-06 1198.76 348 1 