ITEM: TIMESTEP
2500
ITEM: NUMBER OF ATOMS
2220
ITEM: BOX BOUNDS xy xz yz pp pp pp
-0.000134286 0.0003606 -0.000134286
0 0.0009015 0
0 9.015e-05 0
ITEM: ATOMS x y z vx vy vy c_rho_peratom id type 
7.13834e-05 1.34608e-05 8.76869e-05 0.00072661 -3.46815e-06 -3.46815e-06 1258.4 1 1 
5.24396e-05 0.000891201 8.53501e-05 0.0446115 -3.14357e-05 -3.14357e-05 1165.92 2 1 
0.000117409 1.20646e-05 6.02624e-06 0.000582687 6.17573e-05 6.17573e-05 1168.58 3 1 
9.11933e-05 0.000888499 6.82471e-08 0.0443669 -1.65973e-05 -1.65973e-05 1205.78 4 1 
-3.00686e-05 0.000892284 8.47241e-05 0.0446045 1.72814e-05 1.72814e-05 1207.88 5 1 
0.000208258 1.93878e-05 8.44539e-05 0.000995759 2.40381e-05 2.40381e-05 1200.43 6 1 
0.000147067 0.000894626 9.69566e-06 0.0447019 8.91436e-05 8.91436e-05 1188.94 7 1 
0.000239904 1.02077e-05 8.85261e-05 0.000553542 9.68578e-05 9.68578e-05 1182.18 8 1 
0.000280547 8.66195e-06 7.20829e-06 0.00047684 -4.37082e-05 -4.37082e-05 1180.2 9 1 
0.00028601 2.84387e-05 8.05106e-05 0.00141545 -5.96124e-05 -5.96124e-05 1198.14 10 1 
0.000315204 1.30524e-05 2.50241e-06 0.000645853 5.28967e-05 5.28967e-05 1205.7 11 1 
0.000352768 1.35157e-05 8.32188e-06 0.00067748 -6.73874e-05 -6.73874e-05 1187.23 12 1 
-5.87605e-05 0.000895042 3.62747e-06 0.0447951 -8.23826e-05 -8.23826e-05 1217.46 13 1 
3.41749e-05 6.43156e-06 9.86585e-06 0.00033267 9.66406e-06 9.66406e-06 1257.54 14 1 
-0.000126874 0.000899186 1.37716e-05 0.0450549 -0.000109937 -0.000109937 1238.07 15 1 
6.06353e-05 3.50505e-05 8.17087e-05 0.0017341 -5.15119e-06 -5.15119e-06 1227.11 16 1 
9.67687e-05 3.47039e-05 8.46385e-06 0.00170973 2.06457e-06 2.06457e-06 1201.63 17 1 
0.000115702 3.31412e-05 3.10917e-06 0.00161643 3.95133e-05 3.95133e-05 1180.77 18 1 
0.000142628 5.39007e-05 8.56788e-05 0.00265839 -2.80058e-05 -2.80058e-05 1225.52 19 1 
0.000162156 3.08303e-05 1.19698e-05 0.00153618 -1.46111e-05 -1.46111e-05 1179.64 20 1 
0.00018208 3.94706e-05 8.90842e-05 0.00197589 1.75283e-05 1.75283e-05 1198.92 21 1 
0.000203102 3.01989e-05 4.55237e-06 0.00147591 5.4689e-05 5.4689e-05 1195.04 22 1 
0.000234888 2.67758e-05 8.7839e-05 0.00138234 1.27096e-05 1.27096e-05 1191.8 23 1 
0.000262935 4.58494e-05 1.56621e-05 0.00234276 -2.0512e-06 -2.0512e-06 1199.09 24 1 
0.000283686 4.5092e-05 8.21318e-05 0.00225446 -1.21493e-05 -1.21493e-05 1216.62 25 1 
0.000314239 3.27155e-05 4.48924e-06 0.00165764 -1.86642e-05 -1.86642e-05 1218.53 26 1 
0.000329475 3.66059e-05 1.87587e-05 0.00182525 7.44391e-06 7.44391e-06 1231.33 27 1 
-3.59684e-06 3.72612e-05 8.91162e-05 0.00182695 2.21058e-05 2.21058e-05 1207.89 28 1 
3.1798e-05 4.63085e-05 1.99276e-06 0.00229232 5.85416e-05 5.85416e-05 1202.64 29 1 
4.35595e-05 3.54905e-05 8.48404e-05 0.00176936 5.75086e-05 5.75086e-05 1215.82 30 1 
8.69438e-05 6.62324e-05 8.5174e-05 0.00329831 7.09658e-07 7.09658e-07 1188.25 31 1 
9.7663e-05 4.20358e-05 4.6474e-06 0.00217003 -2.24672e-06 -2.24672e-06 1197.47 32 1 
0.00012819 6.81279e-05 3.56259e-06 0.00333292 -6.55249e-05 -6.55249e-05 1215.62 33 1 
0.000146095 5.02552e-05 8.9476e-05 0.00249968 -7.92006e-06 -7.92006e-06 1224.29 34 1 
0.00018477 6.24728e-05 8.96651e-05 0.00311177 4.18143e-06 4.18143e-06 1179.33 35 1 
0.000210755 6.14136e-05 9.08011e-06 0.00302601 4.02704e-05 4.02704e-05 1175.87 36 1 
0.000216783 5.99756e-05 4.26794e-06 0.0029842 1.33399e-06 1.33399e-06 1171.69 37 1 
0.000242381 5.12823e-05 2.33807e-07 0.00255296 -2.50188e-05 -2.50188e-05 1180.61 38 1 
0.000274906 5.29785e-05 8.57382e-05 0.00262867 -1.85011e-05 -1.85011e-05 1212.35 39 1 
0.000301495 5.8981e-05 1.06986e-05 0.00286712 -3.04851e-06 -3.04851e-06 1189.15 40 1 
0.000322052 5.9921e-05 7.48451e-06 0.00296094 1.72367e-06 1.72367e-06 1216.09 41 1 
0.000341236 6.00573e-05 8.52453e-05 0.00308731 -5.4003e-05 -5.4003e-05 1219.37 42 1 
8.77688e-06 4.82734e-05 1.67748e-06 0.00246027 9.6168e-05 9.6168e-05 1208.25 43 1 
2.62643e-05 5.28589e-05 3.12662e-06 0.00261339 -5.53559e-05 -5.53559e-05 1200.49 44 1 
6.45696e-05 5.74551e-05 2.01196e-06 0.00293603 -1.00712e-05 -1.00712e-05 1190.74 45 1 
0.000124087 8.70652e-05 5.72826e-06 0.0043661 4.05392e-05 4.05392e-05 1196.42 46 1 
0.000124467 7.26244e-05 8.69305e-05 0.00362827 -6.88124e-06 -6.88124e-06 1201.01 47 1 
0.000148802 7.81105e-05 8.73391e-05 0.00394991 -4.89508e-05 -4.89508e-05 1202.94 48 1 
0.000194394 8.87511e-05 2.2946e-06 0.00444395 -6.22881e-05 -6.22881e-05 1218.68 49 1 
0.000208863 8.53465e-05 7.3233e-06 0.00428459 -3.20074e-05 -3.20074e-05 1207.14 50 1 
0.000236296 8.34101e-05 8.1026e-05 0.0041095 2.4482e-05 2.4482e-05 1184.91 51 1 
0.000271893 8.95306e-05 2.41279e-06 0.00444772 -5.82864e-06 -5.82864e-06 1204 52 1 
0.000289579 8.52915e-05 8.34752e-06 0.00432628 3.24373e-05 3.24373e-05 1190.06 53 1 
0.000312251 8.03938e-05 5.73904e-06 0.00400169 -7.35533e-05 -7.35533e-05 1197.29 54 1 
0.000325518 8.782e-05 8.83924e-05 0.00441114 2.29623e-07 2.29623e-07 1196.61 55 1 
-3.01636e-06 8.48613e-05 8.31808e-05 0.00425967 -3.87557e-05 -3.87557e-05 1222.06 56 1 
2.08417e-05 7.76569e-05 5.52927e-06 0.00383885 4.3541e-05 4.3541e-05 1187.41 57 1 
5.46297e-05 9.38863e-05 8.34102e-05 0.00468751 2.59138e-05 2.59138e-05 1214.61 58 1 
6.64502e-05 9.15702e-05 1.94162e-06 0.00461799 9.76732e-06 9.76732e-06 1221.5 59 1 
8.26832e-05 7.95491e-05 7.03282e-06 0.00399969 -1.82973e-05 -1.82973e-05 1200.58 60 1 
0.000130177 0.000110251 1.01686e-05 0.00548338 -1.66617e-05 -1.66617e-05 1192.84 61 1 
0.000159964 0.000105443 4.26718e-06 0.00531434 -4.52983e-05 -4.52983e-05 1167.12 62 1 
0.000195296 0.000109569 8.629e-05 0.00556622 -2.59311e-05 -2.59311e-05 1225.17 63 1 
0.000211765 0.000101494 3.84836e-06 0.00511504 2.72576e-05 2.72576e-05 1206.22 64 1 
0.00024952 0.000109538 7.6946e-06 0.00546205 5.12792e-05 5.12792e-05 1190.54 65 1 
0.000269394 0.000113125 4.56143e-06 0.00558255 2.47471e-05 2.47471e-05 1218.66 66 1 
0.000279429 9.62078e-05 8.69983e-05 0.00484141 1.63473e-05 1.63473e-05 1216.63 67 1 
0.000322212 0.000107752 1.58721e-07 0.00544226 -3.2818e-05 -3.2818e-05 1183.22 68 1 
0.000318325 0.000111076 8.90035e-05 0.0056158 -1.95776e-05 -1.95776e-05 1175.95 69 1 
-5.16946e-06 0.00010008 8.78896e-05 0.00499409 -3.32049e-05 -3.32049e-05 1221.85 70 1 
1.66172e-05 0.000102694 9.75808e-06 0.0050397 4.83716e-05 4.83716e-05 1188.34 71 1 
5.53706e-05 0.000112774 3.69574e-06 0.00565673 -2.30233e-05 -2.30233e-05 1217.63 72 1 
7.76803e-05 0.000104262 7.24082e-06 0.00513506 -4.99428e-05 -4.99428e-05 1204.43 73 1 
0.000102079 0.000112693 2.41423e-06 0.0056517 -3.23998e-05 -3.23998e-05 1161.7 74 1 
0.000122428 0.000107587 7.4057e-06 0.00536021 -3.37166e-06 -3.37166e-06 1192.1 75 1 
0.000152218 0.000119104 4.01034e-06 0.00595882 -1.31884e-05 -1.31884e-05 1170.57 76 1 
0.000192189 0.000126873 8.78387e-05 0.00624722 4.55271e-05 4.55271e-05 1204.39 77 1 
0.000216753 0.000129534 5.62222e-06 0.00648047 -1.5791e-05 -1.5791e-05 1178 78 1 
0.000256061 0.000128269 3.57825e-06 0.00641106 -9.7186e-05 -9.7186e-05 1191.5 79 1 
0.000271563 0.000134172 4.33634e-06 0.00673095 -3.45883e-05 -3.45883e-05 1180.86 80 1 
0.000294856 0.00013359 5.14868e-06 0.00667267 4.37207e-06 4.37207e-06 1176.43 81 1 
0.000324175 0.000135683 7.58809e-06 0.0067669 -5.09822e-05 -5.09822e-05 1199.93 82 1 
-1.15582e-05 0.000132886 9.00869e-05 0.00662992 3.37825e-06 3.37825e-06 1218.55 83 1 
1.67632e-05 0.000133868 8.14487e-06 0.00668527 3.69324e-05 3.69324e-05 1217.19 84 1 
2.33667e-05 0.000129065 4.18732e-06 0.00645201 -8.1195e-06 -8.1195e-06 1219.2 85 1 
5.13331e-05 0.000134115 8.87131e-05 0.00668967 -6.41582e-05 -6.41582e-05 1203.28 86 1 
7.20763e-05 0.000128442 1.39048e-06 0.00641293 2.15057e-05 2.15057e-05 1170.07 87 1 
0.00010911 0.000132732 8.63213e-08 0.00667902 2.67528e-05 2.67528e-05 1170.58 88 1 
0.000131533 0.000129507 8.08575e-05 0.00648934 2.19974e-05 2.19974e-05 1223.09 89 1 
0.000181192 0.000145307 1.70743e-06 0.00736793 -3.16829e-05 -3.16829e-05 1212.26 90 1 
0.000195494 0.000148402 1.35845e-05 0.00736515 -6.86667e-05 -6.86667e-05 1213.16 91 1 
0.000238693 0.000158029 8.98088e-05 0.00778959 -2.3135e-05 -2.3135e-05 1184.5 92 1 
0.000248521 0.000157585 5.92337e-06 0.00793324 -2.34848e-05 -2.34848e-05 1179.89 93 1 
0.000273542 0.000149677 8.77016e-05 0.00749221 2.82618e-05 2.82618e-05 1164.98 94 1 
0.000296569 0.000146482 5.30749e-06 0.00733601 -4.25769e-05 -4.25769e-05 1189.36 95 1 
0.000333904 0.000147331 3.76397e-06 0.00735238 -6.6374e-05 -6.6374e-05 1221.58 96 1 
6.25777e-07 0.000163952 4.06371e-06 0.00821767 2.45641e-05 2.45641e-05 1209.17 97 1 
1.25227e-05 0.000153181 8.6933e-05 0.00767313 5.08723e-05 5.08723e-05 1214.33 98 1 
2.98048e-05 0.000152136 8.80479e-05 0.00757934 -1.34194e-05 -1.34194e-05 1213.82 99 1 
6.18983e-05 0.000155199 8.34852e-05 0.00776645 -1.77895e-06 -1.77895e-06 1166.25 100 1 
8.63422e-05 0.000149468 4.59612e-06 0.00748319 4.30068e-06 4.30068e-06 1170.71 101 1 
0.000103429 0.000154468 8.12362e-05 0.007717 2.4824e-05 2.4824e-05 1192.47 102 1 
0.00012623 0.000155222 8.92785e-05 0.00776428 6.79016e-05 6.79016e-05 1218.33 103 1 
0.000153321 0.000151418 7.86572e-05 0.00754019 5.06628e-05 5.06628e-05 1200.27 104 1 
0.000184911 0.000162001 8.92079e-07 0.00814317 2.06621e-05 2.06621e-05 1223.35 105 1 
0.000229119 0.000177545 8.68448e-06 0.00879805 2.81887e-05 2.81887e-05 1179.43 106 1 
0.000260118 0.000175802 8.49568e-05 0.00883674 5.24604e-05 5.24604e-05 1178.69 107 1 
0.000291319 0.000176297 1.16804e-07 0.00881135 8.70389e-06 8.70389e-06 1207.92 108 1 
0.000299275 0.000174973 8.51311e-05 0.00872868 1.30481e-05 1.30481e-05 1207.94 109 1 
-2.62744e-05 0.000182705 1.20751e-05 0.00917982 -5.70261e-05 -5.70261e-05 1175.5 110 1 
5.74592e-07 0.000186535 5.9369e-06 0.00928238 2.68264e-05 2.68264e-05 1195.94 111 1 
2.92189e-05 0.000184339 8.33581e-06 0.00926809 1.05468e-05 1.05468e-05 1167.94 112 1 
4.62483e-05 0.000183233 1.92592e-06 0.00911072 -1.38437e-05 -1.38437e-05 1168.8 113 1 
6.821e-05 0.00018543 8.35811e-05 0.00930811 4.92231e-05 4.92231e-05 1200.1 114 1 
9.37993e-05 0.000183537 8.67538e-05 0.00923615 -4.11836e-05 -4.11836e-05 1209.5 115 1 
0.00011246 0.000177708 1.0097e-05 0.00887309 -2.53933e-06 -2.53933e-06 1202.83 116 1 
0.000139765 0.000167955 1.02855e-05 0.00838097 -8.51912e-06 -8.51912e-06 1247.72 117 1 
0.000170101 0.000182634 8.90326e-05 0.00920113 -4.32187e-05 -4.32187e-05 1205.62 118 1 
0.000200597 0.000182693 1.02624e-05 0.00919092 -1.91868e-05 -1.91868e-05 1184.29 119 1 
0.000200819 0.000175842 4.58226e-06 0.00873137 -3.14258e-05 -3.14258e-05 1194.69 120 1 
0.000272039 0.000202978 8.80691e-05 0.0101788 -5.77745e-05 -5.77745e-05 1197.23 121 1 
0.000287788 0.000203719 9.04795e-06 0.0101741 7.96939e-05 7.96939e-05 1194.94 122 1 
0.000319228 0.000208114 9.00071e-05 0.0103909 5.17472e-05 5.17472e-05 1179.91 123 1 
-1.48467e-05 0.000209447 1.29655e-06 0.0105248 0.000116434 0.000116434 1187.36 124 1 
1.10576e-05 0.000210042 1.22795e-05 0.010506 4.41439e-05 4.41439e-05 1155.91 125 1 
2.00076e-05 0.0002054 8.08307e-06 0.0102773 1.80667e-05 1.80667e-05 1159.58 126 1 
6.71273e-05 0.000208754 8.67828e-05 0.0104252 -6.8498e-05 -6.8498e-05 1209.81 127 1 
6.8875e-05 0.000191875 3.02928e-06 0.00959603 5.23655e-06 5.23655e-06 1205.84 128 1 
0.000105539 0.000202004 1.66586e-05 0.010168 7.62103e-06 7.62103e-06 1181.92 129 1 
0.000127117 0.000210003 5.31847e-06 0.0103836 6.37496e-05 6.37496e-05 1179.53 130 1 
0.000153367 0.000205597 8.62305e-05 0.0102346 -2.98064e-05 -2.98064e-05 1197.69 131 1 
0.000167869 0.000206177 8.47918e-05 0.0103152 3.43374e-05 3.43374e-05 1205.62 132 1 
0.000204396 0.00020664 7.701e-06 0.0103823 2.29908e-05 2.29908e-05 1177.15 133 1 
0.000234307 0.000218316 3.41234e-06 0.010939 -2.56357e-05 -2.56357e-05 1179.96 134 1 
0.000254743 0.000199554 8.62792e-05 0.0100218 1.18427e-05 1.18427e-05 1187.32 135 1 
0.000305019 0.000228887 5.05138e-06 0.01143 5.2102e-05 5.2102e-05 1192.42 136 1 
0.000320584 0.000228856 1.46971e-05 0.0114343 3.64103e-05 3.64103e-05 1182.98 137 1 
-6.70749e-06 0.000225974 7.7798e-07 0.0112909 -0.00011256 -0.00011256 1175.69 138 1 
2.86361e-05 0.000235641 2.56693e-06 0.0118204 6.37936e-05 6.37936e-05 1172.2 139 1 
4.74872e-05 0.000235616 1.02684e-05 0.0118152 -3.04129e-05 -3.04129e-05 1205.69 140 1 
6.30077e-05 0.0002212 8.78157e-05 0.0109818 5.58815e-05 5.58815e-05 1203.45 141 1 
8.7437e-05 0.00022826 2.87165e-06 0.011365 1.70688e-05 1.70688e-05 1167.03 142 1 
0.000113821 0.000230556 1.38878e-06 0.0115723 -4.03554e-06 -4.03554e-06 1178.96 143 1 
0.000120313 0.000221443 5.19667e-06 0.0110797 2.56299e-05 2.56299e-05 1176.33 144 1 
0.000152418 0.000221662 8.5669e-05 0.0111318 -6.94869e-05 -6.94869e-05 1201.82 145 1 
0.00018057 0.000230235 2.17275e-06 0.0115505 2.44944e-05 2.44944e-05 1209.66 146 1 
0.000197766 0.000227514 8.2814e-06 0.0113762 -3.26098e-05 -3.26098e-05 1193.24 147 1 
0.000239994 0.000226244 8.76321e-06 0.0112652 4.50182e-05 4.50182e-05 1168.96 148 1 
0.000246571 0.00022027 8.76422e-05 0.0110177 3.82237e-05 3.82237e-05 1183.45 149 1 
0.000277677 0.000232298 8.93634e-05 0.0115449 -1.05388e-05 -1.05388e-05 1190.56 150 1 
-2.79683e-05 0.000258003 4.41398e-06 0.0128591 -4.91257e-05 -4.91257e-05 1165.03 151 1 
-3.10879e-06 0.000259327 5.61368e-06 0.0129759 -1.16341e-05 -1.16341e-05 1188.58 152 1 
2.34273e-05 0.000253903 8.10446e-05 0.0126421 4.18521e-05 4.18521e-05 1179.66 153 1 
3.22763e-05 0.000250202 3.4402e-07 0.0125101 3.34953e-05 3.34953e-05 1187.52 154 1 
6.66345e-05 0.000244843 8.70955e-05 0.0122161 -4.48188e-05 -4.48188e-05 1174.11 155 1 
9.57838e-05 0.000255322 7.67931e-06 0.0128149 -3.1281e-05 -3.1281e-05 1191.04 156 1 
0.000124407 0.000261305 8.62662e-05 0.0130841 -4.53855e-05 -4.53855e-05 1184.85 157 1 
0.000145984 0.000264202 2.28327e-06 0.0131732 3.00433e-05 3.00433e-05 1187.27 158 1 
0.00016016 0.000246577 6.71272e-06 0.012341 5.00061e-05 5.00061e-05 1204.06 159 1 
0.000188654 0.000249605 8.07934e-05 0.0124929 1.56978e-05 1.56978e-05 1195.38 160 1 
0.000224057 0.000261182 3.96051e-06 0.0131019 2.80859e-06 2.80859e-06 1159.61 161 1 
0.000256058 0.000265235 8.33133e-05 0.0132814 -3.05673e-06 -3.05673e-06 1186.8 162 1 
0.000271378 0.000260339 7.30587e-06 0.012963 -2.22122e-05 -2.22122e-05 1194.17 163 1 
0.000281766 0.000250994 6.44907e-06 0.0125622 1.49232e-05 1.49232e-05 1196.67 164 1 
0.000314239 0.000250419 2.60733e-06 0.0125046 -2.48248e-05 -2.48248e-05 1171.63 165 1 
1.11146e-05 0.000285209 8.22456e-05 0.0142453 -2.07376e-06 -2.07376e-06 1187.77 166 1 
2.88248e-05 0.000272409 2.84373e-06 0.0135994 1.18043e-05 1.18043e-05 1191.48 167 1 
6.00537e-05 0.000277424 7.09658e-06 0.0138841 -3.07605e-06 -3.07605e-06 1177.89 168 1 
6.96151e-05 0.000265106 3.33422e-06 0.0133177 -3.4072e-06 -3.4072e-06 1165.08 169 1 
0.000101 0.000282366 1.17602e-05 0.0141799 7.17396e-06 7.17396e-06 1198.53 170 1 
0.000124716 0.000273002 3.68929e-06 0.0136425 -6.63181e-06 -6.63181e-06 1199.45 171 1 
0.000142621 0.000267651 8.55216e-05 0.0134243 2.94721e-05 2.94721e-05 1173.56 172 1 
0.000172857 0.00027833 1.14223e-05 0.0138819 6.22763e-05 6.22763e-05 1190.18 173 1 
0.000207488 0.00028464 9.65123e-07 0.0142109 3.94139e-05 3.94139e-05 1162.69 174 1 
0.000226994 0.000279958 4.2907e-06 0.0140662 3.8737e-05 3.8737e-05 1166.52 175 1 
0.000257427 0.000279952 1.62312e-05 0.0139659 2.5091e-05 2.5091e-05 1184.46 176 1 
0.000269308 0.000273996 7.35225e-07 0.0137201 -0.000108032 -0.000108032 1192.59 177 1 
0.000295511 0.000286282 8.93526e-05 0.0143331 2.48965e-05 2.48965e-05 1164.51 178 1 
-3.25595e-05 0.000285094 3.69444e-06 0.0142837 -6.88925e-06 -6.88925e-06 1180.42 179 1 
-2.44897e-05 0.000277958 8.62898e-05 0.0139396 -3.6679e-05 -3.6679e-05 1184.37 180 1 
4.68232e-05 0.000307581 7.27063e-06 0.0153858 -4.03271e-05 -4.03271e-05 1209.03 181 1 
4.57032e-05 0.000285809 3.1091e-06 0.0143136 -5.88515e-06 -5.88515e-06 1188.43 182 1 
8.78363e-05 0.000308177 9.17984e-06 0.0154267 -2.33306e-06 -2.33306e-06 1154.91 183 1 
0.000109001 0.000300127 3.38974e-06 0.0150443 -6.39864e-05 -6.39864e-05 1195.66 184 1 
0.000133256 0.000293296 1.48156e-05 0.0146676 3.07122e-05 3.07122e-05 1183.26 185 1 
0.000141608 0.000301143 8.161e-05 0.0150574 5.20874e-06 5.20874e-06 1168.81 186 1 
0.000167787 0.000298789 8.78367e-05 0.0148864 -5.38732e-05 -5.38732e-05 1172.88 187 1 
0.00019873 0.000295714 7.97726e-05 0.0147279 -3.30023e-05 -3.30023e-05 1151.66 188 1 
0.00022519 0.000301574 1.47461e-05 0.0150169 -2.21837e-05 -2.21837e-05 1189.16 189 1 
0.000256111 0.000302531 8.56607e-05 0.0151247 5.22036e-05 5.22036e-05 1188.26 190 1 
0.000289624 0.00030663 8.94121e-05 0.0152818 3.58485e-05 3.58485e-05 1182.01 191 1 
0.000304724 0.000305543 8.88073e-05 0.0152841 6.40505e-05 6.40505e-05 1174.61 192 1 
-2.29021e-05 0.000312678 9.01259e-06 0.0155797 -5.67649e-06 -5.67649e-06 1178.33 193 1 
-1.48944e-05 0.000295942 2.05581e-06 0.0147918 -4.09217e-05 -4.09217e-05 1180.33 194 1 
2.54135e-05 0.000311455 1.29619e-06 0.0156025 -3.64026e-05 -3.64026e-05 1185.71 195 1 
6.37365e-05 0.000331537 8.76285e-05 0.0164848 2.0324e-05 2.0324e-05 1178.77 196 1 
9.7225e-05 0.000330898 1.39941e-05 0.0164718 3.88793e-05 3.88793e-05 1152.6 197 1 
0.000113942 0.000321949 8.56051e-05 0.0161309 3.22399e-05 3.22399e-05 1178.91 198 1 
0.000135336 0.000321615 9.01337e-05 0.0160765 -2.11648e-05 -2.11648e-05 1148.68 199 1 
0.000164235 0.000323821 2.03151e-06 0.0161728 6.62014e-07 6.62014e-07 1173.32 200 1 
0.00019075 0.000326011 8.85864e-05 0.0163289 3.93478e-05 3.93478e-05 1167.29 201 1 
0.000223899 0.000331932 1.65165e-06 0.0165851 3.06936e-05 3.06936e-05 1198.29 202 1 
0.000234242 0.000330763 8.7952e-05 0.0166064 -1.36964e-05 -1.36964e-05 1198.14 203 1 
0.000256065 0.000329222 6.95898e-06 0.0165004 4.5055e-05 4.5055e-05 1201.47 204 1 
0.000280497 0.000324777 8.9614e-05 0.0162332 5.07077e-05 5.07077e-05 1188.43 205 1 
0.000309107 0.000327408 9.04142e-06 0.0164018 1.05527e-05 1.05527e-05 1184.04 206 1 
-2.88517e-05 0.000326571 4.85265e-06 0.0163409 4.03842e-05 4.03842e-05 1179.94 207 1 
-2.16156e-06 0.000332088 1.22088e-05 0.0165703 8.76258e-06 8.76258e-06 1160.84 208 1 
2.5796e-05 0.000325907 8.85944e-05 0.0163122 -6.45728e-06 -6.45728e-06 1173.7 209 1 
4.48996e-05 0.000328032 4.97481e-06 0.0163935 -3.46016e-05 -3.46016e-05 1199.57 210 1 
0.000108202 0.00035131 1.16642e-05 0.0175122 -9.55603e-06 -9.55603e-06 1195.61 211 1 
0.000124304 0.000344616 2.29143e-06 0.017227 -1.88431e-05 -1.88431e-05 1176.03 212 1 
0.000147043 0.000356156 1.16046e-06 0.0177861 8.87741e-06 8.87741e-06 1175.2 213 1 
0.000170388 0.000352346 1.20586e-06 0.0175895 -2.34036e-05 -2.34036e-05 1181.07 214 1 
0.000188429 0.000346156 8.85851e-05 0.017343 -6.02641e-05 -6.02641e-05 1178.54 215 1 
0.000219794 0.000346456 8.90531e-05 0.0173151 2.99023e-05 2.99023e-05 1179.96 216 1 
0.000242558 0.000357589 3.22291e-06 0.0178187 1.77368e-05 1.77368e-05 1193.26 217 1 
0.000273537 0.000351134 5.10445e-06 0.0175231 4.95129e-05 4.95129e-05 1187.9 218 1 
0.000295997 0.000349753 5.47284e-06 0.0174583 3.23538e-05 3.23538e-05 1194.86 219 1 
0.000306284 0.000351144 3.92669e-06 0.017575 1.98287e-05 1.98287e-05 1200.75 220 1 
-2.59053e-05 0.000345737 8.40701e-06 0.0172602 4.88605e-05 4.88605e-05 1191.41 221 1 
1.32095e-05 0.000346497 8.66634e-05 0.0172711 6.45211e-06 6.45211e-06 1128.26 222 1 
3.61542e-05 0.000354547 8.26495e-06 0.0177988 1.82108e-06 1.82108e-06 1165.59 223 1 
5.16103e-05 0.000354726 4.82009e-06 0.0177241 2.36465e-05 2.36465e-05 1164.85 224 1 
7.35364e-05 0.000340886 5.33482e-06 0.017121 4.19796e-05 4.19796e-05 1144.19 225 1 
0.000123679 0.000365334 1.33825e-06 0.0183511 -1.26652e-05 -1.26652e-05 1196.29 226 1 
0.000173366 0.000387141 1.0958e-05 0.019311 -2.87833e-05 -2.87833e-05 1178.29 227 1 
0.000179524 0.000375615 6.52083e-06 0.0187781 -2.86434e-06 -2.86434e-06 1177.7 228 1 
0.000209009 0.000376841 8.37076e-05 0.0189082 -5.20463e-05 -5.20463e-05 1173.24 229 1 
0.000231196 0.000372162 1.53681e-05 0.0186063 -1.906e-05 -1.906e-05 1186.82 230 1 
0.000257 0.000381237 3.5733e-06 0.0190757 1.81195e-05 1.81195e-05 1185.04 231 1 
0.000262503 0.000373397 8.96834e-05 0.0187498 7.09625e-06 7.09625e-06 1189.55 232 1 
0.000297732 0.000375454 1.45384e-05 0.018769 4.64494e-05 4.64494e-05 1166.92 233 1 
-2.84596e-05 0.000376033 1.8065e-06 0.018803 -5.48577e-05 -5.48577e-05 1174.8 234 1 
-1.4025e-05 0.000380867 6.74087e-06 0.0190058 1.94488e-05 1.94488e-05 1164.72 235 1 
1.54609e-05 0.00037735 4.2792e-06 0.0188763 5.97946e-05 5.97946e-05 1166.53 236 1 
3.60187e-05 0.000379259 8.90773e-05 0.0188671 4.63563e-05 4.63563e-05 1168.51 237 1 
7.12401e-05 0.000374987 8.49284e-05 0.018754 5.78586e-05 5.78586e-05 1159.87 238 1 
7.66105e-05 0.00037118 7.82076e-06 0.0185362 -2.66627e-05 -2.66627e-05 1144.9 239 1 
0.000120606 0.000376518 2.8738e-06 0.0188186 -3.95185e-05 -3.95185e-05 1187.47 240 1 
0.000165605 0.00040933 8.17007e-05 0.0204613 1.33298e-05 1.33298e-05 1168.47 241 1 
0.000181665 0.000396847 8.44082e-05 0.0199264 2.03774e-05 2.03774e-05 1155.98 242 1 
0.000211962 0.000398405 4.98037e-06 0.0199588 5.42568e-05 5.42568e-05 1166.62 243 1 
0.000248419 0.000402807 4.64602e-06 0.0202246 2.12469e-05 2.12469e-05 1181.43 244 1 
0.000264523 0.000411509 7.67826e-05 0.0205293 -3.52814e-05 -3.52814e-05 1173.03 245 1 
0.000278573 0.000403087 4.52334e-08 0.0202163 3.58771e-05 3.58771e-05 1184.44 246 1 
-5.5236e-05 0.000397798 1.4988e-06 0.0199067 -1.21789e-06 -1.21789e-06 1161.08 247 1 
-1.724e-05 0.000407551 8.92509e-05 0.0204015 3.96673e-05 3.96673e-05 1158.31 248 1 
-2.07603e-07 0.000395917 6.11869e-06 0.0197958 -2.97386e-05 -2.97386e-05 1164.31 249 1 
2.56285e-05 0.000399991 8.48668e-05 0.0200609 -2.91577e-05 -2.91577e-05 1167.62 250 1 
3.02954e-05 0.000396618 5.15715e-06 0.019817 -5.42326e-05 -5.42326e-05 1181.93 251 1 
7.84256e-05 0.000400116 8.65735e-07 0.0200095 -8.54554e-05 -8.54554e-05 1164.46 252 1 
0.000100965 0.0004063 1.50135e-05 0.0203542 -8.80129e-06 -8.80129e-06 1149.98 253 1 
0.000127003 0.000404979 7.57038e-06 0.0202497 -7.49822e-05 -7.49822e-05 1174.81 254 1 
0.00014923 0.00041226 3.76347e-06 0.0206465 -1.24113e-05 -1.24113e-05 1191.26 255 1 
0.000202388 0.000424386 1.17684e-05 0.0212402 -2.72291e-05 -2.72291e-05 1169.7 256 1 
0.00022101 0.000414172 5.83239e-06 0.0206993 -3.72249e-05 -3.72249e-05 1190 257 1 
0.000235569 0.00041834 3.87844e-06 0.0209209 -5.29452e-05 -5.29452e-05 1183.25 258 1 
0.000280129 0.000431894 2.89301e-06 0.0215853 1.87363e-05 1.87363e-05 1176.9 259 1 
0.000291444 0.000422856 8.53091e-05 0.0211564 -2.58447e-05 -2.58447e-05 1187.18 260 1 
-3.98043e-05 0.000428101 1.96707e-06 0.0213396 1.61427e-05 1.61427e-05 1165.08 261 1 
-1.6406e-05 0.000418706 8.79794e-06 0.0209691 4.56738e-05 4.56738e-05 1143.88 262 1 
7.47074e-06 0.000422899 2.32978e-06 0.0211034 -2.90569e-05 -2.90569e-05 1148.92 263 1 
3.3731e-05 0.000433306 1.17929e-05 0.0216457 -1.0675e-05 -1.0675e-05 1203.42 264 1 
5.92022e-05 0.000434831 8.56117e-05 0.0216859 4.31679e-05 4.31679e-05 1181.51 265 1 
6.85221e-05 0.000416412 8.78889e-05 0.0207836 2.88793e-05 2.88793e-05 1174.59 266 1 
0.000101534 0.000423802 3.94135e-07 0.0211263 7.38476e-05 7.38476e-05 1141.25 267 1 
0.000128434 0.000429413 8.806e-05 0.0215075 -3.99085e-05 -3.99085e-05 1184.92 268 1 
0.000153812 0.000427867 3.84162e-06 0.0213864 -6.90278e-05 -6.90278e-05 1181.91 269 1 
0.000181308 0.000423045 8.54764e-05 0.0211267 9.02219e-05 9.02219e-05 1163.3 270 1 
0.000228642 0.000449302 8.03849e-06 0.0224268 -2.77518e-05 -2.77518e-05 1185.73 271 1 
0.000250363 0.000443094 8.64778e-05 0.0222312 -2.502e-05 -2.502e-05 1161.37 272 1 
0.000280628 0.000460963 5.53372e-06 0.0230263 -3.79705e-05 -3.79705e-05 1195.5 273 1 
0.000289712 0.000443325 4.17747e-06 0.0222178 2.15041e-06 2.15041e-06 1187.7 274 1 
-2.8917e-05 0.000456838 1.54005e-05 0.022814 -3.96284e-05 -3.96284e-05 1154.2 275 1 
-1.99379e-05 0.000446324 6.25397e-07 0.0222927 -1.3461e-05 -1.3461e-05 1149.02 276 1 
2.23607e-05 0.000448536 4.04358e-06 0.0223651 -1.84294e-06 -1.84294e-06 1201.66 277 1 
4.60408e-05 0.000456762 3.05645e-06 0.0228062 -8.61363e-05 -8.61363e-05 1175.03 278 1 
6.94836e-05 0.000458829 8.11555e-05 0.0230186 6.21597e-05 6.21597e-05 1167.17 279 1 
8.38337e-05 0.00044762 9.39884e-06 0.0223894 -3.42053e-06 -3.42053e-06 1139.51 280 1 
0.000124375 0.000453166 8.03149e-05 0.0226852 -3.54914e-06 -3.54914e-06 1167.66 281 1 
0.000120604 0.000439658 1.67782e-06 0.0219785 6.48695e-05 6.48695e-05 1160.71 282 1 
0.00014958 0.000440638 9.01229e-05 0.0220419 -5.7919e-05 -5.7919e-05 1167.49 283 1 
0.000182353 0.000442847 9.38233e-06 0.0221612 -2.41097e-05 -2.41097e-05 1160.94 284 1 
0.000197562 0.000442127 1.17425e-05 0.0220332 -8.77216e-08 -8.77216e-08 1173.87 285 1 
6.97543e-05 9.74125e-06 3.99812e-05 0.000563947 -1.12078e-05 -1.12078e-05 1190.82 286 1 
0.000168782 3.13424e-06 3.19888e-05 0.000155719 1.45746e-05 1.45746e-05 1227.74 287 1 
7.92445e-05 0.000885369 2.8085e-05 0.0443127 -6.43551e-05 -6.43551e-05 1216.74 288 1 
9.8249e-05 0.000885047 3.08533e-05 0.0441436 9.80417e-05 9.80417e-05 1216.63 289 1 
0.000162237 1.48448e-05 3.52142e-05 0.000751703 -4.42366e-05 -4.42366e-05 1198.4 290 1 
0.000210854 9.29271e-06 2.5838e-05 0.000477133 -4.31761e-05 -4.31761e-05 1227.12 291 1 
0.000215376 1.86719e-05 2.78294e-05 0.000949252 -5.56601e-05 -5.56601e-05 1221.72 292 1 
0.000196819 0.000893107 2.72903e-05 0.0446272 -4.63649e-05 -4.63649e-05 1190.69 293 1 
0.00031982 9.32963e-07 3.1729e-05 2.04035e-05 -6.69535e-06 -6.69535e-06 1200.42 294 1 
-0.000118996 0.000892776 2.92062e-05 0.0446468 5.83037e-06 5.83037e-06 1287.29 295 1 
0.000317375 1.28451e-05 2.95274e-05 0.000671643 1.79477e-05 1.79477e-05 1196.73 296 1 
0.000352517 1.98559e-05 3.32725e-05 0.00102346 -5.03002e-05 -5.03002e-05 1183.96 297 1 
-4.4343e-05 0.000888666 2.61651e-05 0.0444169 6.57267e-06 6.57267e-06 1192 298 1 
-1.448e-05 0.000891327 3.16758e-05 0.0445631 1.80491e-05 1.80491e-05 1174.09 299 1 
3.06087e-06 0.000891085 2.8649e-05 0.0445419 4.36303e-05 4.36303e-05 1195.11 300 1 
6.1447e-05 3.09491e-05 2.97776e-05 0.00156606 4.16018e-05 4.16018e-05 1216.19 301 1 
8.95891e-05 3.47591e-05 2.45606e-05 0.00175609 5.7326e-05 5.7326e-05 1200.9 302 1 
0.000115126 3.14008e-05 3.13457e-05 0.00153633 -2.61877e-05 -2.61877e-05 1182.51 303 1 
0.000140128 3.92578e-05 2.78966e-05 0.00192877 1.12956e-05 1.12956e-05 1188.53 304 1 
0.000168632 3.71134e-05 1.67035e-05 0.00192374 9.28321e-05 9.28321e-05 1187.47 305 1 
0.00019417 3.15084e-05 2.30933e-05 0.00158983 1.58181e-05 1.58181e-05 1189.42 306 1 
0.000213094 4.10106e-05 3.22231e-05 0.0020681 3.34383e-05 3.34383e-05 1188.14 307 1 
0.000232865 3.70389e-05 1.97352e-05 0.00177786 -4.35637e-05 -4.35637e-05 1181.86 308 1 
0.000256887 2.97431e-05 3.18057e-05 0.00148569 -1.95565e-05 -1.95565e-05 1221.82 309 1 
0.000282415 3.02367e-05 2.41091e-05 0.00156463 -6.21549e-05 -6.21549e-05 1203.26 310 1 
0.000297661 3.4936e-05 3.3329e-05 0.00175552 1.102e-05 1.102e-05 1202.1 311 1 
0.000330715 4.43742e-05 3.70523e-05 0.00227485 4.76702e-05 4.76702e-05 1224.65 312 1 
-3.96208e-06 4.2529e-05 2.49648e-05 0.00214022 -5.90064e-05 -5.90064e-05 1196.2 313 1 
3.74681e-05 3.47104e-05 2.39799e-05 0.00178818 6.19383e-06 6.19383e-06 1232.56 314 1 
4.46635e-05 4.60677e-05 2.66075e-05 0.00237278 -4.41055e-05 -4.41055e-05 1235.19 315 1 
7.83261e-05 4.84141e-05 3.28199e-05 0.0024376 8.80811e-05 8.80811e-05 1184.18 316 1 
0.000105575 5.98972e-05 3.47531e-05 0.00298051 1.0978e-06 1.0978e-06 1226.58 317 1 
0.000129056 5.378e-05 3.34168e-05 0.00271618 -5.44578e-05 -5.44578e-05 1228.93 318 1 
0.000155581 6.58497e-05 2.45746e-05 0.00325529 -2.56597e-05 -2.56597e-05 1225.71 319 1 
0.000178474 6.72749e-05 2.41615e-05 0.00335294 5.83977e-06 5.83977e-06 1227.11 320 1 
0.000193746 5.01121e-05 3.30601e-05 0.00253448 5.53147e-06 5.53147e-06 1207.95 321 1 
0.000240402 6.63958e-05 2.7221e-05 0.00329297 5.16288e-05 5.16288e-05 1190.22 322 1 
0.000252745 6.00366e-05 2.69886e-05 0.00302943 -1.77485e-05 -1.77485e-05 1198.14 323 1 
0.000278407 5.27467e-05 2.78344e-05 0.00266092 -2.70618e-05 -2.70618e-05 1192.73 324 1 
0.000311453 5.01966e-05 2.37556e-05 0.0024662 1.72331e-05 1.72331e-05 1213.37 325 1 
0.000331213 6.61504e-05 2.16771e-05 0.00329312 -2.49617e-05 -2.49617e-05 1211.67 326 1 
0.000348572 5.99138e-05 3.04244e-05 0.00295751 2.37905e-05 2.37905e-05 1202.32 327 1 
1.18412e-05 5.85543e-05 2.66547e-05 0.00294826 -2.65777e-05 -2.65777e-05 1204.33 328 1 
3.5646e-05 6.49142e-05 2.27769e-05 0.00329935 1.72739e-05 1.72739e-05 1215.4 329 1 
6.01562e-05 6.09608e-05 2.92967e-05 0.00303689 -6.45877e-05 -6.45877e-05 1207.36 330 1 
0.000116213 7.57841e-05 3.29554e-05 0.00374782 1.72134e-05 1.72134e-05 1217.84 331 1 
0.000153275 9.18192e-05 2.92265e-05 0.00464004 8.64177e-05 8.64177e-05 1198.65 332 1 
0.000171496 8.23384e-05 2.56872e-05 0.0041244 5.99351e-05 5.99351e-05 1225.86 333 1 
0.000171582 7.84417e-05 3.57483e-05 0.00389948 -2.95169e-05 -2.95169e-05 1238.31 334 1 
0.000212174 7.88452e-05 2.5953e-05 0.00394185 -5.50422e-06 -5.50422e-06 1194.21 335 1 
0.000234058 8.84605e-05 3.05641e-05 0.0043804 -4.75844e-05 -4.75844e-05 1194.94 336 1 
0.00025736 7.85833e-05 2.07197e-05 0.00380145 -7.87627e-05 -7.87627e-05 1174.8 337 1 
0.000283759 8.54918e-05 2.11492e-05 0.00430954 5.74497e-05 5.74497e-05 1183.1 338 1 
0.000301193 8.2643e-05 3.43478e-05 0.00413013 -6.88647e-05 -6.88647e-05 1207.82 339 1 
0.000340258 9.09961e-05 3.37299e-05 0.00453765 5.99439e-06 5.99439e-06 1196.14 340 1 
-7.83454e-06 8.80983e-05 1.23015e-05 0.00440878 7.10266e-06 7.10266e-06 1206.59 341 1 
1.92373e-05 7.94009e-05 2.8516e-05 0.00400552 4.70513e-05 4.70513e-05 1202.44 342 1 
4.53995e-05 8.71751e-05 2.60855e-05 0.00436723 -4.64925e-06 -4.64925e-06 1206.41 343 1 
6.16441e-05 8.89946e-05 2.62238e-05 0.00443381 -7.95268e-06 -7.95268e-06 1206 344 1 
8.78667e-05 8.4119e-05 2.25077e-05 0.00426765 -8.39469e-05 -8.39469e-05 1204.52 345 1 
0.000131458 9.50391e-05 3.78551e-05 0.00474092 5.11845e-05 5.11845e-05 1185.95 346 1 
0.000170343 0.000108087 2.94326e-05 0.00536328 0.00011902 0.00011902 1184.12 347 1 
0.000192324 0.000102243 2.62486e-05 0.0050634 -5.32119e-06 -5.32119e-06 1196.78 348 1 