ITEM: TIMESTEP
2300
ITEM: NUMBER OF ATOMS
2220
ITEM: BOX BOUNDS xy xz yz pp pp pp
0 0.000539961 0.000179361
0 0.0009015 0
0 9.015e-05 0
ITEM: ATOMS x y z vx vy vy c_rho_peratom id type 
6.39636e-05 1.58933e-05 8.67566e-05 0.000855281 2.15699e-05 2.15699e-05 1196.72 1 1 
0.000323559 0.000893146 8.35656e-05 0.0446794 1.39637e-05 1.39637e-05 1180.9 2 1 
0.000113476 1.27224e-05 4.77856e-06 0.000728504 -9.14594e-05 -9.14594e-05 1168.84 3 1 
0.000363479 0.000888246 1.88021e-06 0.0444165 1.34212e-05 1.34212e-05 1218.8 4 1 
0.000240095 0.00089319 8.37843e-05 0.0446537 3.66218e-05 3.66218e-05 1173.03 5 1 
0.00020205 1.72305e-05 8.41887e-05 0.000873612 5.85339e-05 5.85339e-05 1169.89 6 1 
0.000418795 0.000894785 9.27336e-06 0.0448368 -4.30602e-05 -4.30602e-05 1186.37 7 1 
0.000234827 9.86717e-06 8.88192e-05 0.000552546 5.35548e-05 5.35548e-05 1160.4 8 1 
0.000274087 7.36964e-06 6.03678e-06 0.000388766 -1.16874e-05 -1.16874e-05 1196.78 9 1 
0.00028242 2.72378e-05 8.05349e-05 0.00136568 -7.73888e-06 -7.73888e-06 1197.84 10 1 
0.000310307 1.15288e-05 4.12229e-06 0.000592319 -1.50451e-05 -1.50451e-05 1229.78 11 1 
0.000347174 1.18367e-05 5.61126e-06 0.000505332 6.53618e-05 6.53618e-05 1201.36 12 1 
0.00021131 0.000896003 3.73104e-06 0.0447845 -4.8645e-05 -4.8645e-05 1235.55 13 1 
2.97374e-05 7.77336e-06 6.73707e-06 0.000349231 1.50051e-05 1.50051e-05 1259.73 14 1 
0.000504329 0.000900632 1.61393e-05 0.0448914 6.8463e-05 6.8463e-05 1241.4 15 1 
5.54364e-05 3.7719e-05 8.22625e-05 0.00192498 -0.000216275 -0.000216275 1218.89 16 1 
9.21487e-05 3.52594e-05 8.53071e-06 0.00171839 -6.31699e-07 -6.31699e-07 1198.04 17 1 
0.000111079 3.25539e-05 1.83053e-06 0.00166173 -0.00010099 -0.00010099 1182.67 18 1 
0.000136138 5.31723e-05 8.32313e-05 0.00261908 -5.22324e-05 -5.22324e-05 1222.76 19 1 
0.000157436 3.25318e-05 1.17134e-05 0.00164856 -9.10243e-05 -9.10243e-05 1186.94 20 1 
0.00017797 4.04742e-05 8.8638e-05 0.00201729 -3.54281e-05 -3.54281e-05 1199.2 21 1 
0.00019883 2.98568e-05 4.46313e-06 0.00130437 -0.00015865 -0.00015865 1206.97 22 1 
0.00022799 2.6094e-05 8.67642e-05 0.00131099 -6.57363e-05 -6.57363e-05 1176.16 23 1 
0.000257688 4.52479e-05 1.3923e-05 0.00214996 -3.31873e-07 -3.31873e-07 1198.26 24 1 
0.000280333 4.51195e-05 8.25985e-05 0.00223828 -5.17133e-05 -5.17133e-05 1220.72 25 1 
0.000308975 3.06719e-05 5.43337e-06 0.0016625 -1.67125e-05 -1.67125e-05 1214.82 26 1 
0.000326094 3.52104e-05 1.87554e-05 0.00177222 1.6814e-05 1.6814e-05 1230.5 27 1 
0.00035181 3.75633e-05 8.75364e-05 0.0018458 1.61369e-06 1.61369e-06 1205.34 28 1 
2.79726e-05 4.48447e-05 4.0597e-06 0.0022744 0.000127636 0.000127636 1213.65 29 1 
4.08605e-05 3.53787e-05 8.52481e-05 0.00182405 -0.000112578 -0.000112578 1220.92 30 1 
7.86398e-05 6.59857e-05 8.53542e-05 0.0034017 1.88684e-05 1.88684e-05 1194.31 31 1 
9.17114e-05 4.36368e-05 4.00469e-06 0.00213197 -6.82726e-06 -6.82726e-06 1205.65 32 1 
0.00012206 6.72918e-05 5.07401e-06 0.00344381 -3.03068e-05 -3.03068e-05 1212.99 33 1 
0.000139831 4.93382e-05 8.6494e-05 0.00235792 5.87865e-05 5.87865e-05 1220.66 34 1 
0.000178974 6.18015e-05 8.9829e-05 0.00305638 7.43663e-05 7.43663e-05 1197.47 35 1 
0.000203573 6.02805e-05 9.95161e-06 0.00305573 -0.000159957 -0.000159957 1204.34 36 1 
0.000211625 6.1357e-05 3.9835e-06 0.00304124 -0.00010929 -0.00010929 1191.78 37 1 
0.000235768 5.39075e-05 8.8918e-05 0.00261881 9.03918e-05 9.03918e-05 1189.46 38 1 
0.000269789 5.40727e-05 8.67604e-05 0.00272671 5.37873e-05 5.37873e-05 1221.62 39 1 
0.000295318 5.98061e-05 1.07135e-05 0.00289193 -4.72009e-05 -4.72009e-05 1196.74 40 1 
0.000314332 6.08671e-05 9.9105e-06 0.00297421 2.93865e-05 2.93865e-05 1205.13 41 1 
0.000336746 5.95312e-05 8.54995e-05 0.00297014 1.99457e-05 1.99457e-05 1218.79 42 1 
0.000363431 4.88806e-05 2.79317e-06 0.00241692 -2.83209e-05 -2.83209e-05 1203.41 43 1 
2.07661e-05 5.18662e-05 2.14716e-06 0.00252473 7.48087e-05 7.48087e-05 1198.81 44 1 
5.73437e-05 5.57485e-05 2.82551e-06 0.00279964 6.01037e-05 6.01037e-05 1207.44 45 1 
0.000115136 8.93888e-05 8.25461e-06 0.00436025 3.48012e-05 3.48012e-05 1206.91 46 1 
0.000116861 7.40803e-05 8.69846e-05 0.00376899 -1.78337e-05 -1.78337e-05 1199.83 47 1 
0.000139937 7.92242e-05 8.83037e-05 0.00384128 -9.75413e-05 -9.75413e-05 1204.78 48 1 
0.000185384 8.69947e-05 2.33225e-06 0.00442199 -1.32198e-05 -1.32198e-05 1231.63 49 1 
0.000198559 8.57371e-05 7.31821e-06 0.00428524 5.55553e-05 5.55553e-05 1227.31 50 1 
0.000228436 8.43251e-05 8.05435e-05 0.00425974 8.18015e-06 8.18015e-06 1186.91 51 1 
0.000265678 8.84653e-05 3.73831e-06 0.00431241 2.53821e-05 2.53821e-05 1202.31 52 1 
0.000281758 8.48507e-05 9.11432e-06 0.0042253 -6.50624e-05 -6.50624e-05 1202.12 53 1 
0.000304067 8.09019e-05 5.72377e-06 0.00399871 4.02055e-05 4.02055e-05 1195.59 54 1 
0.000316268 8.78286e-05 8.87702e-05 0.00439302 -4.56086e-05 -4.56086e-05 1183.48 55 1 
0.000350724 8.36699e-05 8.40184e-05 0.00432918 -5.19168e-05 -5.19168e-05 1226.63 56 1 
0.000372167 7.76001e-05 4.68556e-06 0.00400867 -1.72518e-05 -1.72518e-05 1184.86 57 1 
4.49251e-05 9.2354e-05 8.28941e-05 0.00461574 -9.8999e-05 -9.8999e-05 1200.48 58 1 
5.74407e-05 9.21607e-05 2.34865e-06 0.00473834 -1.50781e-06 -1.50781e-06 1218.58 59 1 
7.43165e-05 7.89119e-05 7.93717e-06 0.00385831 5.6831e-05 5.6831e-05 1201.74 60 1 
0.000121665 0.000107831 9.8108e-06 0.0053816 1.37235e-05 1.37235e-05 1200.89 61 1 
0.000149336 0.000103677 3.39693e-06 0.0051503 -0.000124701 -0.000124701 1180.27 62 1 
0.000183138 0.000111481 8.70227e-05 0.00553188 -3.13935e-05 -3.13935e-05 1227.31 63 1 
0.000199289 0.000100681 4.38476e-06 0.00513424 5.44364e-05 5.44364e-05 1225.88 64 1 
0.000238121 0.000109666 7.04085e-06 0.00544238 -0.000155199 -0.000155199 1194.78 65 1 
0.000257277 0.000111417 2.32276e-06 0.00555079 -1.9319e-06 -1.9319e-06 1205.96 66 1 
0.000268116 9.61986e-05 8.46799e-05 0.00492761 6.83387e-05 6.83387e-05 1207.07 67 1 
0.00031046 0.000110702 8.91973e-05 0.00547577 8.36998e-05 8.36998e-05 1173.79 68 1 
0.000305509 0.000111336 8.88464e-05 0.00553592 2.92281e-05 2.92281e-05 1172.95 69 1 
0.000345235 9.86138e-05 8.90551e-05 0.0049214 0.000134923 0.000134923 1213.11 70 1 
0.000367604 0.000103195 1.03383e-05 0.00530021 -1.30135e-05 -1.30135e-05 1188.27 71 1 
4.37427e-05 0.000115651 3.9499e-06 0.0057151 3.41751e-06 3.41751e-06 1207.54 72 1 
6.71835e-05 0.000105386 6.20248e-06 0.00523995 8.79326e-05 8.79326e-05 1210.64 73 1 
8.91318e-05 0.000111281 3.21826e-06 0.00553368 2.9522e-05 2.9522e-05 1175.83 74 1 
0.000110399 0.000109527 9.60351e-06 0.00554161 2.65228e-05 2.65228e-05 1200.72 75 1 
0.000139372 0.00011935 4.02298e-06 0.00595027 6.07325e-06 6.07325e-06 1170.4 76 1 
0.000178132 0.000127788 8.87657e-05 0.00648195 -4.78023e-05 -4.78023e-05 1209.89 77 1 
0.000205185 0.000129682 4.64032e-06 0.00641566 3.12516e-05 3.12516e-05 1211.74 78 1 
0.000242565 0.000130013 3.12556e-06 0.00653127 -4.40486e-06 -4.40486e-06 1188.25 79 1 
0.00025628 0.000133669 3.18588e-06 0.00660906 -8.076e-06 -8.076e-06 1171.89 80 1 
0.000283871 0.0001356 6.34323e-06 0.00691592 -7.397e-05 -7.397e-05 1176.03 81 1 
0.000312129 0.000136882 9.14426e-06 0.00696186 1.23769e-05 1.23769e-05 1222.36 82 1 
0.000335163 0.000132997 1.87809e-07 0.00665162 -2.06337e-06 -2.06337e-06 1213.83 83 1 
0.00036354 0.000133144 8.75012e-06 0.00665237 -2.32215e-05 -2.32215e-05 1215.78 84 1 
0.00037083 0.000130876 6.38365e-06 0.00648397 5.17529e-05 5.17529e-05 1217.33 85 1 
3.81914e-05 0.00013259 8.88531e-05 0.00655479 -0.000109209 -0.000109209 1197.33 86 1 
5.80661e-05 0.000128204 6.7471e-07 0.00639411 -3.65459e-05 -3.65459e-05 1183.17 87 1 
9.37969e-05 0.00013313 6.28469e-07 0.0067094 -1.63609e-05 -1.63609e-05 1168.81 88 1 
0.000117751 0.000129196 8.30941e-05 0.0065193 -1.83764e-05 -1.83764e-05 1203.02 89 1 
0.000167179 0.000144637 3.71034e-08 0.00717537 4.37966e-05 4.37966e-05 1206.34 90 1 
0.000181679 0.00014822 1.39582e-05 0.00736076 5.23555e-05 5.23555e-05 1229.2 91 1 
0.000223898 0.000156217 3.28958e-07 0.00782612 -0.000102136 -0.000102136 1184.84 92 1 
0.000233391 0.000157794 6.75414e-06 0.0078952 -4.84231e-05 -4.84231e-05 1182.41 93 1 
0.000257531 0.000150083 8.78467e-05 0.00741621 0.000101027 0.000101027 1165.67 94 1 
0.000284277 0.00014487 5.21944e-06 0.00723954 -3.85379e-05 -3.85379e-05 1193.34 95 1 
0.000317711 0.000148344 3.90189e-06 0.00746625 -3.30005e-05 -3.30005e-05 1239.02 96 1 
0.000341896 0.000164267 4.15711e-06 0.00825691 0.000200727 0.000200727 1218.27 97 1 
0.000355601 0.000153715 8.55922e-05 0.00780436 -1.41442e-05 -1.41442e-05 1214.06 98 1 
0.000372629 0.000152287 8.69064e-05 0.00749905 -5.37622e-05 -5.37622e-05 1214.02 99 1 
4.68088e-05 0.000156466 8.34943e-05 0.00786188 4.54556e-06 4.54556e-06 1179.4 100 1 
7.27559e-05 0.000150934 5.55978e-06 0.00746354 -2.22964e-05 -2.22964e-05 1189.42 101 1 
8.48591e-05 0.000154046 8.06598e-05 0.00770333 6.22485e-06 6.22485e-06 1197.45 102 1 
0.000110466 0.000155464 8.85111e-05 0.00779016 -1.78739e-05 -1.78739e-05 1215.25 103 1 
0.000137138 0.000151524 8.14275e-05 0.00763478 -9.96833e-05 -9.96833e-05 1197.79 104 1 
0.000169346 0.000160692 3.40554e-06 0.00813333 1.03299e-05 1.03299e-05 1220.61 105 1 
0.000209569 0.000180187 8.49647e-06 0.00915509 -0.000161563 -0.000161563 1167.31 106 1 
0.000241544 0.000175167 8.56068e-05 0.00886832 8.80834e-05 8.80834e-05 1182.86 107 1 
0.000272398 0.000175099 2.25407e-06 0.00872771 0.000105298 0.000105298 1214.82 108 1 
0.000279785 0.000175811 8.57361e-05 0.00886324 5.74965e-05 5.74965e-05 1209.26 109 1 
0.00031507 0.00018013 1.1798e-05 0.00903958 7.71578e-05 7.71578e-05 1192.14 110 1 
0.000341549 0.000186563 6.30473e-06 0.00934407 0.000164551 0.000164551 1198.81 111 1 
0.000368972 0.000180732 6.73612e-06 0.00906517 -0.00010127 -0.00010127 1171.59 112 1 
0.000389779 0.00018563 3.27129e-06 0.00925618 2.20599e-05 2.20599e-05 1180.41 113 1 
4.90094e-05 0.000185904 8.34732e-05 0.00920066 8.83383e-05 8.83383e-05 1207.17 114 1 
7.38215e-05 0.000181787 8.76052e-05 0.0090577 4.25873e-05 4.25873e-05 1204.22 115 1 
9.82146e-05 0.000176248 1.10898e-05 0.00873576 -6.72903e-05 -6.72903e-05 1205.68 116 1 
0.000120418 0.000168239 1.22892e-05 0.0083957 0.00014676 0.00014676 1243.67 117 1 
0.00014957 0.000181776 8.80123e-05 0.00911147 -3.5769e-05 -3.5769e-05 1213.91 118 1 
0.00017925 0.00018364 9.69004e-06 0.00926317 -6.38341e-05 -6.38341e-05 1187.51 119 1 
0.000180692 0.000174802 3.28923e-06 0.00869259 -6.96959e-05 -6.96959e-05 1194.6 120 1 
0.000248904 0.000203471 8.75257e-05 0.010234 -5.88771e-05 -5.88771e-05 1192.58 121 1 
0.000267465 0.000202545 8.35734e-06 0.0101355 3.95769e-05 3.95769e-05 1195.33 122 1 
0.000297097 0.000206938 1.66025e-06 0.0103496 7.87993e-07 7.87993e-07 1186.77 123 1 
0.000322901 0.000209785 2.00662e-06 0.0104548 3.64445e-05 3.64445e-05 1193.82 124 1 
0.000352769 0.000210914 1.13342e-05 0.0105126 6.94555e-05 6.94555e-05 1146.27 125 1 
0.00036005 0.000203375 9.03756e-06 0.0100232 5.38542e-06 5.38542e-06 1151.65 126 1 
4.52015e-05 0.000208744 8.59931e-05 0.0104538 1.32447e-05 1.32447e-05 1229.5 127 1 
4.83211e-05 0.000190251 4.10798e-06 0.00956816 -2.07786e-05 -2.07786e-05 1213.78 128 1 
8.16002e-05 0.000204875 1.54376e-05 0.010236 -7.95283e-05 -7.95283e-05 1174.94 129 1 
0.000105106 0.000212603 4.27819e-06 0.0107196 4.60383e-05 4.60383e-05 1168.48 130 1 
0.000132629 0.000206946 8.78398e-05 0.0103374 -3.04775e-05 -3.04775e-05 1201.8 131 1 
0.000146458 0.000204866 8.2698e-05 0.0102634 9.30813e-05 9.30813e-05 1219.11 132 1 
0.000183416 0.00020639 7.18992e-06 0.0103616 -2.26988e-05 -2.26988e-05 1182.46 133 1 
0.000211277 0.000215617 4.81499e-06 0.0108368 -1.31069e-05 -1.31069e-05 1184.18 134 1 
0.000233783 0.000201703 8.66381e-05 0.01008 9.97094e-06 9.97094e-06 1200.06 135 1 
0.000281786 0.000228364 4.72853e-06 0.0113109 4.89615e-05 4.89615e-05 1175.29 136 1 
0.000298189 0.000228049 1.49618e-05 0.0114014 -2.93604e-05 -2.93604e-05 1182.23 137 1 
0.000330763 0.000225367 8.9666e-05 0.0112263 -0.000105846 -0.000105846 1169.45 138 1 
0.000362169 0.000233483 8.9931e-05 0.0116031 4.32149e-06 4.32149e-06 1161.13 139 1 
0.00038369 0.00023579 1.02055e-05 0.0118595 -3.7118e-06 -3.7118e-06 1210.69 140 1 
0.000400473 0.00022228 8.90854e-05 0.0110612 -3.14947e-05 -3.14947e-05 1232.51 141 1 
6.15005e-05 0.000227615 4.6948e-06 0.0113881 8.14241e-05 8.14241e-05 1186.71 142 1 
8.89952e-05 0.000230777 3.27082e-06 0.0114558 6.46021e-05 6.46021e-05 1167.36 143 1 
9.82418e-05 0.00022176 5.73435e-06 0.0109281 -7.16671e-05 -7.16671e-05 1170.06 144 1 
0.000128561 0.000218508 8.53186e-05 0.0107516 -7.69655e-05 -7.69655e-05 1195.78 145 1 
0.00015636 0.000227641 3.69107e-06 0.0112489 2.95236e-05 2.95236e-05 1184.42 146 1 
0.000176239 0.000227556 9.5877e-06 0.0113485 -7.10036e-06 -7.10036e-06 1177.38 147 1 
0.000215685 0.000227258 9.54626e-06 0.0114146 4.11878e-05 4.11878e-05 1169.18 148 1 
0.000222423 0.000219848 8.67616e-05 0.0108902 1.2896e-05 1.2896e-05 1185.2 149 1 
0.000252656 0.000231298 8.97039e-05 0.011568 -1.5281e-05 -1.5281e-05 1166.66 150 1 
0.00030556 0.000257233 4.25169e-06 0.0128889 -7.09147e-05 -7.09147e-05 1163.96 151 1 
0.000332772 0.00025973 7.54405e-06 0.013004 7.21073e-06 7.21073e-06 1177.77 152 1 
0.000359673 0.000254941 8.30256e-05 0.0127743 3.22816e-05 3.22816e-05 1194.7 153 1 
0.000367936 0.000250965 8.95491e-05 0.0125614 1.93061e-05 1.93061e-05 1197.38 154 1 
0.000401233 0.00024372 8.68801e-05 0.0122868 -9.03169e-05 -9.03169e-05 1199.74 155 1 
6.88619e-05 0.000256167 8.15144e-06 0.0127479 0.000153003 0.000153003 1186.85 156 1 
9.86686e-05 0.000257542 8.46273e-05 0.0128317 3.3643e-05 3.3643e-05 1170.17 157 1 
0.000118752 0.000263937 2.42379e-06 0.0133014 -1.8594e-05 -1.8594e-05 1173.68 158 1 
0.000132773 0.000247454 3.23947e-06 0.0124727 5.45754e-05 5.45754e-05 1179.03 159 1 
0.000161469 0.000250432 8.11474e-05 0.0125912 -1.83527e-05 -1.83527e-05 1179.85 160 1 
0.000196161 0.000260664 4.34223e-06 0.0130663 5.26173e-05 5.26173e-05 1168.18 161 1 
0.00022913 0.000263798 8.20752e-05 0.0132257 5.38357e-05 5.38357e-05 1206.83 162 1 
0.000240089 0.00026052 8.66583e-06 0.0129406 4.91756e-05 4.91756e-05 1207.84 163 1 
0.00025494 0.000253083 6.24984e-06 0.012782 -6.38718e-05 -6.38718e-05 1193.46 164 1 
0.000286379 0.000253545 2.45031e-06 0.0125631 3.15015e-05 3.15015e-05 1171.2 165 1 
0.000342423 0.000286229 8.30394e-05 0.0143268 4.9294e-06 4.9294e-06 1194.07 166 1 
0.000360797 0.000272591 1.86816e-06 0.0135972 -2.2024e-05 -2.2024e-05 1204.88 167 1 
0.000392348 0.000280905 8.54085e-06 0.0141117 6.43507e-05 6.43507e-05 1203.1 168 1 
0.00040248 0.000264841 3.38569e-06 0.0132672 1.83773e-05 1.83773e-05 1179.27 169 1 
7.0604e-05 0.000280532 1.12799e-05 0.014048 7.41328e-06 7.41328e-06 1214.17 170 1 
9.40003e-05 0.000275305 5.36569e-07 0.0137744 -9.32483e-05 -9.32483e-05 1188.86 171 1 
0.000112914 0.000267589 8.68782e-05 0.0132892 9.92315e-06 9.92315e-06 1165.27 172 1 
0.000146241 0.000277802 1.12343e-05 0.013848 6.34493e-05 6.34493e-05 1200.84 173 1 
0.000175248 0.00028419 2.36608e-06 0.0142493 2.1951e-05 2.1951e-05 1170.41 174 1 
0.000200054 0.000282832 3.32653e-06 0.0140297 -0.000118698 -0.000118698 1165.29 175 1 
0.000229517 0.00027873 1.57834e-05 0.0140223 0.000145919 0.000145919 1192.29 176 1 
0.000241866 0.000272502 1.20884e-06 0.0135711 -5.16996e-05 -5.16996e-05 1209.11 177 1 
0.000267899 0.000283978 8.78975e-05 0.0141709 -6.30595e-05 -6.30595e-05 1172.79 178 1 
0.000297806 0.000283598 3.25684e-06 0.0142396 6.02016e-05 6.02016e-05 1184.07 179 1 
0.000308927 0.000278725 8.61662e-05 0.013896 -9.47731e-05 -9.47731e-05 1187.02 180 1 
0.000375329 0.000307727 5.60376e-06 0.0154791 2.05942e-05 2.05942e-05 1209.87 181 1 
0.000376323 0.000286712 2.44203e-06 0.0143478 -2.9232e-05 -2.9232e-05 1210.41 182 1 
0.000417024 0.000306416 7.83008e-06 0.015216 -4.75944e-05 -4.75944e-05 1182.62 183 1 
7.8012e-05 0.000300842 2.49107e-06 0.0149995 -4.66206e-05 -4.66206e-05 1210.47 184 1 
0.000100731 0.000293813 1.53249e-05 0.0145814 2.01701e-05 2.01701e-05 1183.85 185 1 
0.000112475 0.000301702 8.20396e-05 0.0151717 -1.98105e-05 -1.98105e-05 1162.67 186 1 
0.000137258 0.00029921 8.68239e-05 0.014923 -3.34465e-05 -3.34465e-05 1185.87 187 1 
0.000168327 0.000295531 7.96144e-05 0.0147273 6.95977e-05 6.95977e-05 1160.09 188 1 
0.000192712 0.000302122 1.47123e-05 0.0151804 7.5674e-05 7.5674e-05 1178.51 189 1 
0.000225231 0.000301673 8.661e-05 0.0151114 -6.56801e-05 -6.56801e-05 1167.39 190 1 
0.000257917 0.000307831 1.01604e-06 0.0153826 -4.56712e-05 -4.56712e-05 1175.7 191 1 
0.000272917 0.00030635 8.74343e-05 0.0154047 2.89869e-05 2.89869e-05 1173.54 192 1 
0.000304953 0.000313944 9.1885e-06 0.0156072 1.38091e-05 1.38091e-05 1175.05 193 1 
0.000314099 0.000294722 2.50471e-06 0.0147855 4.3383e-05 4.3383e-05 1177.66 194 1 
0.000353159 0.00030923 6.61214e-07 0.0154889 6.43857e-05 6.43857e-05 1177.2 195 1 
0.000388817 0.000331245 3.55758e-07 0.0166386 2.24862e-05 2.24862e-05 1189 196 1 
0.000423386 0.000330001 1.43577e-05 0.0165037 7.16887e-05 7.16887e-05 1160.81 197 1 
8.08872e-05 0.000322547 8.4636e-05 0.0161822 -4.93444e-05 -4.93444e-05 1181.42 198 1 
0.000105102 0.000320229 8.8902e-05 0.0159875 5.08773e-05 5.08773e-05 1141.13 199 1 
0.000130445 0.000321632 2.34259e-06 0.016029 -4.93243e-05 -4.93243e-05 1176.16 200 1 
0.000156339 0.000324439 8.81773e-05 0.0162423 2.13027e-05 2.13027e-05 1184.99 201 1 
0.000187411 0.000334335 2.31438e-06 0.0167793 1.53875e-05 1.53875e-05 1182.81 202 1 
0.000200336 0.000330681 3.26751e-07 0.0165948 -4.87922e-05 -4.87922e-05 1177.42 203 1 
0.000221786 0.000328822 7.2032e-06 0.0163863 -1.3209e-05 -1.3209e-05 1179.69 204 1 
0.000246863 0.000325494 1.82812e-06 0.0162603 -1.71648e-05 -1.71648e-05 1186.8 205 1 
0.000272827 0.000326415 8.77002e-06 0.0163171 -1.44223e-05 -1.44223e-05 1189.29 206 1 
0.000299082 0.000326672 4.56649e-06 0.0163655 -3.15663e-05 -3.15663e-05 1183.57 207 1 
0.000323121 0.000333262 1.01969e-05 0.0165925 -0.000123351 -0.000123351 1163.75 208 1 
0.000350957 0.000327592 8.98468e-05 0.0164597 1.16087e-05 1.16087e-05 1167.25 209 1 
0.000368682 0.000328521 3.22123e-06 0.0164333 -1.58264e-05 -1.58264e-05 1199.13 210 1 
7.10421e-05 0.000351433 1.07873e-05 0.0175905 2.62232e-06 2.62232e-06 1210.85 211 1 
8.80838e-05 0.000346133 1.37694e-06 0.0173588 -3.8292e-05 -3.8292e-05 1182.19 212 1 
0.000110572 0.000357077 2.05319e-06 0.0177803 -2.51671e-05 -2.51671e-05 1183.37 213 1 
0.000132317 0.000351605 1.15657e-06 0.0176189 3.32138e-05 3.32138e-05 1180.48 214 1 
0.000150925 0.000344051 8.92596e-05 0.0171347 6.83134e-06 6.83134e-06 1184.77 215 1 
0.000184063 0.000344976 8.76559e-05 0.017325 -3.46778e-05 -3.46778e-05 1168.96 216 1 
0.000207722 0.000358338 3.03329e-06 0.0179618 -1.35839e-05 -1.35839e-05 1169.71 217 1 
0.00023807 0.000350975 2.94091e-06 0.01751 -3.23055e-05 -3.23055e-05 1196.63 218 1 
0.00025919 0.000347632 5.42763e-06 0.0173539 -2.36913e-05 -2.36913e-05 1193.06 219 1 
0.000271272 0.000349748 5.46477e-06 0.0174652 -4.53906e-05 -4.53906e-05 1180.47 220 1 
0.000297589 0.000344143 6.93645e-06 0.0171904 2.45086e-05 2.45086e-05 1187.89 221 1 
0.000336726 0.000346439 8.90711e-05 0.0171664 2.52956e-05 2.52956e-05 1144.52 222 1 
0.000360078 0.000355506 7.16866e-06 0.0178097 -3.10926e-05 -3.10926e-05 1169.27 223 1 
0.000375619 0.000355559 3.718e-06 0.0177371 -7.60179e-05 -7.60179e-05 1175.15 224 1 
0.000397048 0.000341235 4.9932e-06 0.0171951 -5.66517e-05 -5.66517e-05 1162.64 225 1 
8.56802e-05 0.000365516 1.25357e-06 0.0182509 -3.98573e-05 -3.98573e-05 1208 226 1 
0.000132158 0.000387377 1.1283e-05 0.0194949 3.96829e-05 3.96829e-05 1201.48 227 1 
0.000140806 0.000378229 7.28763e-06 0.0188684 2.92779e-05 2.92779e-05 1198.71 228 1 
0.000170339 0.000375294 8.33566e-05 0.0187808 1.82133e-06 1.82133e-06 1175.68 229 1 
0.000192927 0.00037442 1.50638e-05 0.0188431 -1.68849e-05 -1.68849e-05 1162.06 230 1 
0.000219017 0.000381483 2.03616e-06 0.0190359 -6.7909e-05 -6.7909e-05 1188.54 231 1 
0.000225423 0.000374629 8.96616e-05 0.0186532 4.20974e-05 4.20974e-05 1196.79 232 1 
0.000254302 0.000374406 1.49907e-05 0.0187905 7.59726e-07 7.59726e-07 1160.68 233 1 
0.000294816 0.000375823 8.94624e-05 0.0188232 0.000107304 0.000107304 1171.34 234 1 
0.000307274 0.00038158 7.57148e-06 0.0191542 -1.41676e-06 -1.41676e-06 1182.25 235 1 
0.000337595 0.000379461 2.63768e-06 0.0190619 2.87224e-05 2.87224e-05 1173.66 236 1 
0.000357419 0.000379734 1.02656e-06 0.0190783 1.57055e-05 1.57055e-05 1158.39 237 1 
0.000393237 0.00037568 8.55784e-05 0.0187887 1.22042e-05 1.22042e-05 1163.28 238 1 
0.000400588 0.000369255 7.75972e-06 0.0184198 0.000108445 0.000108445 1163.46 239 1 
7.957e-05 0.00037583 3.82239e-06 0.0186927 -2.22281e-05 -2.22281e-05 1195.66 240 1 
0.000125455 0.000408224 8.72851e-05 0.0202064 2.535e-05 2.535e-05 1178.58 241 1 
0.0001401 0.00039595 8.27269e-05 0.0198176 -0.000130152 -0.000130152 1183.76 242 1 
0.00016921 0.000396583 4.6305e-06 0.0197852 -6.17948e-05 -6.17948e-05 1175.85 243 1 
0.000207994 0.000403807 4.48986e-06 0.0201771 2.51706e-05 2.51706e-05 1178.34 244 1 
0.000221344 0.000411092 7.78378e-05 0.0205532 3.29324e-05 3.29324e-05 1186.78 245 1 
0.000237578 0.000402136 8.96006e-05 0.0201431 9.60285e-05 9.60285e-05 1189.71 246 1 
0.000262917 0.000396915 1.38242e-06 0.019907 -2.40019e-06 -2.40019e-06 1142.34 247 1 
0.000300234 0.000406443 3.61627e-07 0.0202549 6.64887e-05 6.64887e-05 1178.98 248 1 
0.000316157 0.000396502 5.67563e-06 0.0198417 6.11098e-05 6.11098e-05 1182.85 249 1 
0.000342939 0.000398714 8.41574e-05 0.0198416 -1.05957e-05 -1.05957e-05 1158.62 250 1 
0.000350262 0.00039311 7.18375e-06 0.0196496 -6.86156e-05 -6.86156e-05 1167.3 251 1 
0.000398375 0.000402034 1.08553e-06 0.0201666 0.000134627 0.000134627 1163.03 252 1 
0.000419225 0.000405354 1.29775e-05 0.0202025 -5.8204e-05 -5.8204e-05 1165.81 253 1 
8.33743e-05 0.000406805 5.44284e-06 0.0204113 -4.2469e-05 -4.2469e-05 1172.89 254 1 
0.00010827 0.000410555 3.2691e-06 0.0204881 -2.77915e-05 -2.77915e-05 1179.07 255 1 
0.000155855 0.000421794 1.08785e-05 0.0211076 6.64128e-06 6.64128e-06 1167.17 256 1 
0.000178775 0.000413706 6.63281e-06 0.0207245 8.60753e-05 8.60753e-05 1174.68 257 1 
0.000191131 0.000419903 2.51933e-06 0.0210556 -9.28149e-06 -9.28149e-06 1167.13 258 1 
0.000235045 0.000433681 2.64896e-06 0.0216461 6.41923e-05 6.41923e-05 1168.61 259 1 
0.000247463 0.000423468 8.48606e-05 0.0211508 -1.6865e-05 -1.6865e-05 1181.68 260 1 
0.000277043 0.000429128 2.04939e-06 0.021459 -1.88379e-05 -1.88379e-05 1165.02 261 1 
0.000299438 0.00041978 5.65826e-06 0.0208888 6.46175e-05 6.46175e-05 1170.16 262 1 
0.000322999 0.000423705 3.09711e-06 0.0212712 -5.72387e-05 -5.72387e-05 1147.76 263 1 
0.000347508 0.000433131 9.38605e-06 0.021634 1.57339e-05 1.57339e-05 1176.63 264 1 
0.000373273 0.000435934 8.62225e-05 0.0219015 -5.8562e-06 -5.8562e-06 1172.8 265 1 
0.000384392 0.000419914 8.79015e-05 0.0210035 5.16268e-05 5.16268e-05 1158.59 266 1 
0.00041443 0.000424255 2.13754e-06 0.0211719 -1.38717e-05 -1.38717e-05 1162.45 267 1 
0.000445157 0.000429137 3.17823e-07 0.0216916 -6.78581e-05 -6.78581e-05 1182.48 268 1 
0.00010922 0.000426389 2.22255e-06 0.0212655 5.52543e-05 5.52543e-05 1166.68 269 1 
0.000136442 0.000423354 8.46819e-05 0.0212902 5.66585e-05 5.66585e-05 1176.27 270 1 
0.00018198 0.000450856 7.03114e-06 0.0224143 3.95173e-05 3.95173e-05 1168.05 271 1 
0.00020454 0.00044644 8.64997e-05 0.0223232 -0.000126497 -0.000126497 1162.27 272 1 
0.000233471 0.000460034 5.79758e-06 0.0230769 8.11391e-06 8.11391e-06 1184.13 273 1 
0.00024165 0.000445838 3.99673e-06 0.0223803 -9.2868e-05 -9.2868e-05 1170.95 274 1 
0.000283733 0.000456089 1.47715e-05 0.0227904 -1.30755e-05 -1.30755e-05 1161.67 275 1 
0.000295142 0.000444519 1.58223e-06 0.0223623 4.54177e-05 4.54177e-05 1154.99 276 1 
0.000337028 0.000446094 4.11702e-06 0.0222321 6.90928e-05 6.90928e-05 1172.83 277 1 
0.000357627 0.000457895 3.49683e-07 0.0229093 -4.73025e-05 -4.73025e-05 1167.07 278 1 
0.000383115 0.000456548 8.21958e-05 0.0228525 2.01809e-05 2.01809e-05 1169.26 279 1 
0.000396566 0.000446835 1.02789e-05 0.0222881 1.43524e-05 1.43524e-05 1167.95 280 1 
0.000439491 0.000454095 8.02874e-05 0.0226298 6.94597e-05 6.94597e-05 1167.59 281 1 
0.000434923 0.000440546 2.87459e-06 0.0220045 -2.40197e-05 -2.40197e-05 1174.91 282 1 
0.000103758 0.000441795 8.93444e-05 0.0220108 -9.40415e-05 -9.40415e-05 1148.26 283 1 
0.000137594 0.000443665 1.04295e-05 0.022074 -9.14499e-06 -9.14499e-06 1170.02 284 1 
0.000152747 0.000440877 9.36821e-06 0.0219842 3.99099e-06 3.99099e-06 1175.96 285 1 
6.38712e-05 1.20828e-05 4.00632e-05 0.000549184 2.42192e-05 2.42192e-05 1173.29 286 1 
0.000166708 4.74023e-06 3.42674e-05 0.000199729 9.93647e-05 9.93647e-05 1251.68 287 1 
0.000347466 0.000886572 2.60717e-05 0.044345 1.46911e-05 1.46911e-05 1221.05 288 1 
0.000368916 0.000885917 2.76514e-05 0.0443182 -6.99707e-05 -6.99707e-05 1214.28 289 1 
0.00015749 1.57371e-05 3.46208e-05 0.000691498 2.71587e-05 2.71587e-05 1220.88 290 1 
0.000205344 8.63105e-06 2.53162e-05 0.000419424 2.42749e-05 2.42749e-05 1227.89 291 1 
0.000209652 1.78805e-05 2.95455e-05 0.000851234 -3.40524e-06 -3.40524e-06 1229.25 292 1 
0.000468374 0.000893133 2.39727e-05 0.0446875 -5.14431e-05 -5.14431e-05 1203.88 293 1 
0.0004677 0.000899826 3.06353e-05 0.0450422 4.57613e-05 4.57613e-05 1171.08 294 1 
0.000513908 0.00089103 3.05544e-05 0.0445531 -1.52145e-05 -1.52145e-05 1241.37 295 1 
0.000314763 1.21952e-05 2.81634e-05 0.000510434 1.26654e-05 1.26654e-05 1221.71 296 1 
0.000350503 1.95355e-05 3.46574e-05 0.00101731 0.000104161 0.000104161 1216.13 297 1 
0.000226427 0.000888368 2.84623e-05 0.0443467 -0.000169011 -0.000169011 1169.31 298 1 
0.000256053 0.000891154 3.10099e-05 0.0445854 -5.13576e-05 -5.13576e-05 1126.49 299 1 
0.000275769 0.000889172 2.89882e-05 0.0444327 -2.31152e-05 -2.31152e-05 1180.61 300 1 
5.82595e-05 2.84727e-05 3.21997e-05 0.00147678 -0.000123762 -0.000123762 1214.58 301 1 
8.48704e-05 3.40334e-05 2.57012e-05 0.00164884 -3.32681e-05 -3.32681e-05 1188.62 302 1 
0.000107745 3.12891e-05 3.03152e-05 0.00158152 1.66326e-05 1.66326e-05 1201.08 303 1 
0.000137913 3.74787e-05 2.45704e-05 0.00195323 -1.73797e-05 -1.73797e-05 1189.85 304 1 
0.000164595 3.68131e-05 1.7277e-05 0.00180421 1.81539e-05 1.81539e-05 1201.88 305 1 
0.000190643 3.25331e-05 2.29125e-05 0.00170199 -1.14479e-05 -1.14479e-05 1232.2 306 1 
0.000206667 4.06563e-05 3.3659e-05 0.00201099 -0.00012989 -0.00012989 1204.41 307 1 
0.000227029 3.84418e-05 2.17987e-05 0.00188437 -3.66002e-05 -3.66002e-05 1179.31 308 1 
0.000253918 3.00776e-05 3.04973e-05 0.00149074 -5.23855e-05 -5.23855e-05 1186.5 309 1 
0.00027713 3.35749e-05 2.4836e-05 0.00175697 -3.85493e-05 -3.85493e-05 1185.28 310 1 
0.000294421 3.7039e-05 3.38748e-05 0.00178189 3.7724e-05 3.7724e-05 1204.57 311 1 
0.000325904 4.30913e-05 3.79675e-05 0.0021134 9.68722e-05 9.68722e-05 1238.22 312 1 
0.00035273 4.32421e-05 2.6237e-05 0.00214275 -6.08635e-05 -6.08635e-05 1206.14 313 1 
3.34346e-05 3.2829e-05 2.41639e-05 0.00165429 5.07472e-07 5.07472e-07 1248.87 314 1 
3.89276e-05 4.4338e-05 2.76565e-05 0.0021975 3.59686e-05 3.59686e-05 1242.57 315 1 
7.10733e-05 4.81273e-05 3.19621e-05 0.00239979 -9.51316e-05 -9.51316e-05 1205.02 316 1 
9.84258e-05 6.04855e-05 3.48234e-05 0.00296587 9.09592e-05 9.09592e-05 1217.83 317 1 
0.000122007 5.29167e-05 3.26462e-05 0.0027425 7.4054e-05 7.4054e-05 1208.81 318 1 
0.000150084 6.60804e-05 2.66898e-05 0.00326547 -9.03522e-05 -9.03522e-05 1218.29 319 1 
0.000172329 6.61433e-05 2.58592e-05 0.00330694 -6.35699e-05 -6.35699e-05 1246.09 320 1 
0.000186644 5.11372e-05 3.25633e-05 0.00260293 4.23101e-05 4.23101e-05 1236.76 321 1 
0.000232637 6.71564e-05 2.81739e-05 0.00341085 -5.88406e-05 -5.88406e-05 1173.17 322 1 
0.000245609 5.87991e-05 2.55761e-05 0.00297111 4.21756e-05 4.21756e-05 1185.09 323 1 
0.000273736 5.06499e-05 2.62807e-05 0.00241395 -2.66512e-05 -2.66512e-05 1205.05 324 1 
0.000303962 5.26816e-05 2.51467e-05 0.0027283 -6.23135e-06 -6.23135e-06 1216.36 325 1 
0.000327447 6.62648e-05 2.23261e-05 0.00324867 -4.54342e-05 -4.54342e-05 1205.99 326 1 
0.000342014 5.77953e-05 2.9342e-05 0.00288261 -5.01474e-05 -5.01474e-05 1213.12 327 1 
0.00036759 5.87648e-05 2.50228e-05 0.0029877 -5.61195e-06 -5.61195e-06 1200.83 328 1 
2.91644e-05 6.58553e-05 2.52122e-05 0.00330946 0.000104182 0.000104182 1207.26 329 1 
5.46534e-05 6.02219e-05 2.9922e-05 0.00317191 -4.51675e-05 -4.51675e-05 1214.8 330 1 
0.000106802 7.46774e-05 3.11877e-05 0.00379444 -0.000160092 -0.000160092 1201.79 331 1 
0.000142904 9.23198e-05 2.81506e-05 0.00468418 0.00010624 0.00010624 1191.28 332 1 
0.000164208 8.30153e-05 2.5769e-05 0.00410203 -2.46965e-05 -2.46965e-05 1231.92 333 1 
0.000164191 7.84814e-05 3.39582e-05 0.00396043 -3.44969e-06 -3.44969e-06 1238.09 334 1 
0.000203629 7.8951e-05 2.45851e-05 0.00384762 -1.49259e-06 -1.49259e-06 1197.19 335 1 
0.000225067 8.93024e-05 2.84559e-05 0.00441247 -7.53427e-05 -7.53427e-05 1171.55 336 1 
0.00025035 7.87178e-05 2.36543e-05 0.00389665 -7.96081e-05 -7.96081e-05 1176.31 337 1 
0.000274083 8.60524e-05 2.0651e-05 0.00435717 2.72477e-05 2.72477e-05 1200.41 338 1 
0.000294371 8.4376e-05 3.21464e-05 0.00414522 4.34224e-05 4.34224e-05 1221.39 339 1 
0.000330344 9.15704e-05 3.29807e-05 0.00450014 0.000108999 0.000108999 1196.97 340 1 
0.000344596 8.71657e-05 1.24338e-05 0.00439283 7.05012e-05 7.05012e-05 1205.49 341 1 
0.000372939 8.08854e-05 2.84248e-05 0.00403006 -5.3407e-05 -5.3407e-05 1193.57 342 1 
3.79538e-05 8.81732e-05 2.51084e-05 0.00434655 -4.82168e-05 -4.82168e-05 1200.51 343 1 
5.22966e-05 8.69364e-05 2.45926e-05 0.00438981 2.87666e-05 2.87666e-05 1206.39 344 1 
7.94695e-05 8.34494e-05 2.09388e-05 0.00420149 -5.19212e-06 -5.19212e-06 1204.48 345 1 
0.000122387 9.46855e-05 3.84029e-05 0.00467198 -3.91492e-05 -3.91492e-05 1180.57 346 1 
0.000160553 0.000105605 2.80815e-05 0.00533471 9.14923e-05 9.14923e-05 1193.05 347 1 
0.000182984 0.000104197 2.59532e-05 0.00515298 3.78752e-06 3.78752e-06 1205.19 348 1 