ITEM: TIMESTEP
3900
ITEM: NUMBER OF ATOMS
2220
ITEM: BOX BOUNDS xy xz yz pp pp pp
-0.000166214 0.0003606 -0.000166214
0 0.0009015 0
0 9.015e-05 0
ITEM: ATOMS x y z vx vy vy c_rho_peratom id type 
9.89422e-05 7.88378e-06 8.74422e-05 0.000392209 5.23172e-07 5.23172e-07 1203.06 1 1 
-4.34035e-05 0.000894011 7.63158e-05 0.0446975 2.94762e-06 2.94762e-06 1204.37 2 1 
0.000154142 1.22787e-05 7.91516e-07 0.000610134 1.36909e-06 1.36909e-06 1167.63 3 1 
-4.06215e-06 0.000887342 1.21062e-06 0.0443612 3.76764e-06 3.76764e-06 1206.69 4 1 
-0.000129476 0.00088536 8.88421e-05 0.0442717 -1.33862e-06 -1.33862e-06 1240.44 5 1 
0.000233444 1.84297e-05 8.3087e-05 0.000923145 -5.64792e-07 -5.64792e-07 1215.73 6 1 
5.20942e-05 0.000892646 6.3684e-06 0.0446249 3.85975e-06 3.85975e-06 1190.99 7 1 
0.000273953 8.54712e-06 7.98275e-05 0.00042485 1.10407e-06 1.10407e-06 1194.05 8 1 
0.000319981 9.7823e-06 1.26215e-06 0.000488042 -1.10753e-07 -1.10753e-07 1216.2 9 1 
0.000320342 2.78053e-05 8.01727e-05 0.00139408 -1.89088e-06 -1.89088e-06 1203.25 10 1 
0.000353973 1.51847e-05 5.82997e-06 0.000758033 4.41248e-07 4.41248e-07 1198.32 11 1 
3.30599e-05 1.58329e-05 4.92516e-06 0.000795847 -1.55039e-06 -1.55039e-06 1198.58 12 1 
-0.000156389 0.000889782 1.47281e-06 0.0444844 2.73481e-06 2.73481e-06 1184.22 13 1 
6.20425e-05 6.77639e-06 7.64151e-06 0.000337426 8.6077e-07 8.6077e-07 1240.11 14 1 
0.00012929 0.000899821 2.01373e-05 0.0449941 -3.47988e-08 -3.47988e-08 1222.43 15 1 
9.83124e-05 4.22694e-05 8.47472e-05 0.00211756 -1.54343e-06 -1.54343e-06 1204.46 16 1 
0.000131897 3.80345e-05 8.70709e-06 0.00190188 -3.89707e-07 -3.89707e-07 1193.24 17 1 
0.000147751 3.03343e-05 6.44867e-06 0.00151908 -5.35492e-07 -5.35492e-07 1160.33 18 1 
0.00018004 5.4739e-05 8.92937e-05 0.00272929 3.85223e-06 3.85223e-06 1195.22 19 1 
0.000189815 3.30712e-05 2.04772e-05 0.00165306 -7.47438e-07 -7.47438e-07 1214.67 20 1 
0.000214861 4.00715e-05 5.37539e-06 0.00200437 -3.17597e-08 -3.17597e-08 1215.95 21 1 
0.000232636 2.67435e-05 4.70234e-06 0.00133602 -2.43398e-07 -2.43398e-07 1246.19 22 1 
0.000268671 2.98291e-05 8.83922e-05 0.00149149 -2.00889e-07 -2.00889e-07 1209.54 23 1 
0.000305452 4.8972e-05 1.48185e-05 0.00244893 -6.83774e-07 -6.83774e-07 1205.41 24 1 
0.000315963 4.73285e-05 7.94407e-05 0.00236723 -2.48898e-07 -2.48898e-07 1193.05 25 1 
0.000340448 3.44714e-05 2.50703e-06 0.00171791 2.33183e-06 2.33183e-06 1201.01 26 1 
-1.84301e-06 3.3379e-05 1.71746e-05 0.00166448 1.38043e-06 1.38043e-06 1188.16 27 1 
2.65719e-05 3.23055e-05 5.26997e-06 0.0016112 1.53704e-06 1.53704e-06 1197.1 28 1 
6.72882e-05 4.70067e-05 8.32817e-05 0.00235062 2.30446e-07 2.30446e-07 1201.98 29 1 
8.21128e-05 3.54726e-05 8.36781e-05 0.00177405 -7.05123e-07 -7.05123e-07 1199.05 30 1 
0.000137644 6.57007e-05 8.72448e-05 0.00328549 -1.18322e-06 -1.18322e-06 1195.83 31 1 
0.000136412 4.29157e-05 5.29203e-07 0.0021442 1.16908e-08 1.16908e-08 1190.33 32 1 
0.000176818 7.40824e-05 2.94573e-07 0.00370499 4.16721e-07 4.16721e-07 1195.43 33 1 
0.000181309 4.32941e-05 8.60304e-05 0.00216034 1.99474e-06 1.99474e-06 1190.2 34 1 
0.000232461 6.88965e-05 3.76131e-06 0.00344649 5.1449e-07 5.1449e-07 1170.94 35 1 
0.000250856 6.34182e-05 4.08005e-06 0.0031648 2.18411e-06 2.18411e-06 1184.05 36 1 
0.000259323 5.48459e-05 8.98316e-05 0.00274384 -6.10424e-07 -6.10424e-07 1193.76 37 1 
0.000281042 5.41315e-05 2.23723e-06 0.00271008 -9.91347e-07 -9.91347e-07 1199.47 38 1 
0.000315721 5.39603e-05 1.33108e-06 0.00270125 -1.63283e-06 -1.63283e-06 1196.86 39 1 
0.000342523 5.84543e-05 1.25166e-05 0.00291977 1.96189e-06 1.96189e-06 1183.47 40 1 
8.43515e-06 6.38856e-05 5.1409e-06 0.00319123 1.39984e-06 1.39984e-06 1202.14 41 1 
2.76647e-05 6.33231e-05 8.29357e-05 0.0031713 -2.58642e-06 -2.58642e-06 1223.75 42 1 
4.5381e-05 4.69504e-05 8.04599e-06 0.00234495 9.91956e-07 9.91956e-07 1205.65 43 1 
6.34047e-05 5.41512e-05 8.84339e-05 0.00271344 -2.24645e-06 -2.24645e-06 1194.55 44 1 
0.000108236 5.78257e-05 1.65028e-06 0.00289235 -7.46704e-07 -7.46704e-07 1200.93 45 1 
0.000187602 8.09064e-05 2.66226e-06 0.00403978 2.45423e-06 2.45423e-06 1174.68 46 1 
0.000178044 7.2887e-05 8.99394e-05 0.00364956 -4.57898e-06 -4.57898e-06 1195.15 47 1 
0.00021182 8.11879e-05 8.8464e-05 0.00405643 8.14964e-07 8.14964e-07 1154.66 48 1 
0.000253272 8.3484e-05 2.61394e-06 0.00417392 -4.16068e-07 -4.16068e-07 1188.08 49 1 
0.000267703 7.71897e-05 1.11813e-05 0.0038558 2.69748e-06 2.69748e-06 1194.41 50 1 
0.000294701 8.76111e-05 7.78835e-05 0.00437922 2.03044e-06 2.03044e-06 1198.91 51 1 
0.000331944 8.84878e-05 4.14609e-06 0.00442521 2.25812e-07 2.25812e-07 1198.78 52 1 
-5.6803e-06 8.05235e-05 8.47872e-06 0.00402674 4.35906e-07 4.35906e-07 1200.61 53 1 
1.31893e-05 8.08797e-05 8.90929e-05 0.00404138 7.81948e-07 7.81948e-07 1202.74 54 1 
3.33725e-05 8.98274e-05 8.64991e-05 0.00449133 -1.13682e-06 -1.13682e-06 1183.98 55 1 
5.91146e-05 8.65896e-05 8.72696e-05 0.00432731 1.45034e-06 1.45034e-06 1194.99 56 1 
8.39133e-05 8.34561e-05 2.63694e-06 0.00416802 1.7617e-06 1.7617e-06 1194.49 57 1 
0.000120606 9.5127e-05 8.56483e-05 0.00475129 2.921e-06 2.921e-06 1237.82 58 1 
0.000128822 8.95936e-05 5.19077e-06 0.00448026 1.05886e-07 1.05886e-07 1209.93 59 1 
0.0001432 7.62478e-05 1.13039e-05 0.00380519 2.37839e-06 2.37839e-06 1187 60 1 
0.000203259 0.000108061 1.42678e-05 0.00539733 1.68531e-06 1.68531e-06 1186.62 61 1 
0.000236591 0.000105872 6.97632e-06 0.00529006 2.23528e-06 2.23528e-06 1200.33 62 1 
0.000271345 0.000113101 7.54661e-05 0.00565899 -2.67149e-06 -2.67149e-06 1191.09 63 1 
0.000287385 0.0001049 3.2293e-06 0.00524473 -8.24864e-07 -8.24864e-07 1190.88 64 1 
0.000323492 0.000102742 6.96307e-06 0.00513174 -1.54955e-08 -1.54955e-08 1194.67 65 1 
-1.23145e-05 0.000115901 3.76617e-06 0.00579812 -1.04907e-06 -1.04907e-06 1209.13 66 1 
-1.01876e-05 9.61004e-05 3.2484e-06 0.00480441 -6.48207e-10 -6.48207e-10 1215.65 67 1 
3.31268e-05 0.000105194 8.9124e-05 0.00525676 1.77286e-06 1.77286e-06 1181.05 68 1 
3.94587e-05 0.000116677 2.63755e-06 0.0058373 -3.32545e-06 -3.32545e-06 1196.79 69 1 
6.25138e-05 0.000101973 8.78989e-05 0.0050954 5.29669e-07 5.29669e-07 1210.64 70 1 
9.09818e-05 0.000102024 6.69269e-06 0.00510034 7.99739e-09 7.99739e-09 1213.94 71 1 
0.000135351 0.000112402 1.13757e-06 0.00562299 -1.89132e-06 -1.89132e-06 1214.28 72 1 
0.000158277 0.000111372 3.5429e-06 0.00556698 -5.50035e-07 -5.50035e-07 1194.68 73 1 
0.000181273 0.000118287 5.9483e-06 0.00591476 1.44848e-06 1.44848e-06 1198.06 74 1 
0.000199403 0.000108367 6.08064e-06 0.00542162 -2.87646e-06 -2.87646e-06 1177.28 75 1 
0.000239668 0.0001243 7.50264e-06 0.00621536 -1.56628e-06 -1.56628e-06 1181.03 76 1 
0.00029213 0.000130828 8.58777e-05 0.00653488 2.44281e-06 2.44281e-06 1186.98 77 1 
0.000313989 0.000124482 6.23579e-06 0.00622271 2.43176e-06 2.43176e-06 1179.49 78 1 
-1.09345e-05 0.000131543 6.44954e-06 0.006577 7.37791e-07 7.37791e-07 1195.49 79 1 
1.02024e-05 0.000135225 2.87154e-06 0.00675847 1.70875e-07 1.70875e-07 1183.46 80 1 
2.61356e-05 0.000129578 4.32681e-06 0.00647894 -5.37759e-07 -5.37759e-07 1187.26 81 1 
6.38615e-05 0.000144519 7.60293e-06 0.00723378 -2.67601e-06 -2.67601e-06 1192.26 82 1 
8.23602e-05 0.00013311 8.94046e-05 0.00666459 -4.70671e-06 -4.70671e-06 1164.36 83 1 
0.000112298 0.000128679 1.0394e-05 0.00643599 -5.69769e-07 -5.69769e-07 1199.34 84 1 
0.000113272 0.000123725 5.58947e-06 0.00618923 -2.21569e-06 -2.21569e-06 1201.46 85 1 
0.000150822 0.000132626 8.83413e-05 0.00663154 -1.16222e-06 -1.16222e-06 1215.71 86 1 
0.00016725 0.000125202 8.99567e-05 0.00625938 -1.18204e-06 -1.18204e-06 1212.22 87 1 
0.000208668 0.00013634 1.10933e-06 0.00681691 -5.4896e-07 -5.4896e-07 1193.63 88 1 
0.000229701 0.000130388 8.51056e-05 0.00651311 4.36172e-06 4.36172e-06 1181.42 89 1 
0.00028102 0.000139597 4.13004e-06 0.00698125 -1.12539e-07 -1.12539e-07 1197.29 90 1 
0.000305085 0.000148783 1.49875e-05 0.0074423 -8.15188e-07 -8.15188e-07 1181.18 91 1 
-4.86837e-06 0.000161171 8.38241e-05 0.00805462 9.74005e-07 9.74005e-07 1203.34 92 1 
9.27556e-06 0.000163287 2.18172e-06 0.00816291 2.6682e-06 2.6682e-06 1200.13 93 1 
2.43322e-05 0.000152594 1.94839e-06 0.00762573 1.54715e-06 1.54715e-06 1201.1 94 1 
4.00732e-05 0.000152715 4.75401e-06 0.00763626 -6.73174e-07 -6.73174e-07 1215.38 95 1 
7.614e-05 0.00014388 3.09396e-06 0.00718686 2.98784e-06 2.98784e-06 1166.73 96 1 
0.000118051 0.000166256 8.94947e-05 0.00831203 1.59882e-06 1.59882e-06 1202.29 97 1 
0.000122823 0.000155205 8.19752e-05 0.00776146 -7.45707e-08 -7.45707e-08 1188.7 98 1 
0.000141012 0.000152495 8.29934e-05 0.00762327 4.01906e-07 4.01906e-07 1193.22 99 1 
0.000177026 0.000161118 8.35841e-05 0.0080515 1.83066e-06 1.83066e-06 1192.07 100 1 
0.000194762 0.000152654 4.62295e-06 0.00763633 -1.63345e-06 -1.63345e-06 1197.66 101 1 
0.00021252 0.00015428 8.24552e-05 0.00771437 -5.16314e-07 -5.16314e-07 1182.2 102 1 
0.000240643 0.000153492 8.77583e-05 0.00767126 3.12133e-06 3.12133e-06 1189.13 103 1 
0.000269769 0.000155327 7.73658e-05 0.00776172 1.86096e-06 1.86096e-06 1204.1 104 1 
0.00030224 0.000163655 8.73944e-05 0.00818583 -2.72257e-06 -2.72257e-06 1189.09 105 1 
-1.3338e-06 0.000178226 1.03767e-05 0.00890499 4.32982e-06 4.32982e-06 1185.69 106 1 
2.86355e-05 0.000174381 8.3627e-05 0.00872147 -1.58021e-06 -1.58021e-06 1186.03 107 1 
6.25647e-05 0.000179927 8.71256e-05 0.00899325 1.24935e-06 1.24935e-06 1200.41 108 1 
7.19459e-05 0.000177154 8.07023e-05 0.00886263 -1.6141e-06 -1.6141e-06 1206.74 109 1 
0.000109686 0.000180225 1.18069e-05 0.00900943 1.27685e-06 1.27685e-06 1202.66 110 1 
0.000135004 0.000188688 6.49702e-06 0.00943114 7.50668e-07 7.50668e-07 1194.35 111 1 
0.000169255 0.000189999 1.01507e-05 0.00950393 -3.55152e-06 -3.55152e-06 1196.77 112 1 
0.000174808 0.000176252 7.95008e-07 0.008817 -1.66289e-06 -1.66289e-06 1196.62 113 1 
0.000200533 0.000188394 8.1131e-05 0.00941827 4.95351e-07 4.95351e-07 1184.94 114 1 
0.00023352 0.000189711 8.83087e-05 0.00948396 4.9082e-07 4.9082e-07 1157.22 115 1 
0.000247411 0.000182182 1.3413e-05 0.00910892 1.78756e-06 1.78756e-06 1179.2 116 1 
0.000263744 0.000171322 1.33741e-05 0.0085671 4.72444e-07 4.72444e-07 1206.33 117 1 
0.00030491 0.000183625 2.53304e-06 0.00918153 4.37591e-07 4.37591e-07 1203.52 118 1 
-2.66668e-05 0.000184488 1.53438e-05 0.00922171 5.99826e-07 5.99826e-07 1179.83 119 1 
0.000325262 0.000181091 5.22793e-06 0.00905024 1.8796e-06 1.8796e-06 1206.3 120 1 
6.30944e-05 0.000201908 8.68626e-05 0.0100905 3.10276e-06 3.10276e-06 1218.45 121 1 
7.08873e-05 0.000202069 4.18933e-06 0.0101027 8.47135e-07 8.47135e-07 1211.26 122 1 
0.000110934 0.000206321 2.6909e-06 0.0103199 -2.11757e-06 -2.11757e-06 1180.98 123 1 
0.00014005 0.000212547 1.40537e-06 0.0106229 1.89823e-06 1.89823e-06 1191.25 124 1 
0.000167512 0.000213116 1.34043e-05 0.0106545 8.9249e-07 8.9249e-07 1180.76 125 1 
0.000172696 0.000205892 9.88859e-06 0.0102951 8.32898e-07 8.32898e-07 1173.56 126 1 
0.000219945 0.000213558 2.85773e-06 0.0106754 1.78389e-06 1.78389e-06 1180.86 127 1 
0.00020137 0.00019165 8.80925e-05 0.0095835 -3.34712e-08 -3.34712e-08 1185.68 128 1 
0.000244971 0.000201841 1.46249e-05 0.0100924 1.69527e-06 1.69527e-06 1161.7 129 1 
0.000276108 0.000207323 5.54886e-06 0.010369 -1.18417e-06 -1.18417e-06 1184.53 130 1 
0.000306832 0.000206645 8.8941e-05 0.0103321 -1.20816e-07 -1.20816e-07 1194.79 131 1 
0.000316104 0.000202474 8.33654e-05 0.0101295 -3.54382e-06 -3.54382e-06 1204.75 132 1 
-4.27728e-06 0.00020842 3.04688e-06 0.0104228 -5.82393e-07 -5.82393e-07 1180.35 133 1 
3.38588e-05 0.000219731 4.81559e-06 0.0109844 -3.33072e-07 -3.33072e-07 1211.17 134 1 
4.43498e-05 0.000204663 8.24514e-05 0.0102335 -1.95882e-06 -1.95882e-06 1216.06 135 1 
0.000117966 0.000233279 4.69433e-06 0.0116619 8.65924e-07 8.65924e-07 1187.86 136 1 
0.000125677 0.000229589 1.62344e-05 0.0114866 -3.71302e-06 -3.71302e-06 1185.92 137 1 
0.000161165 0.000230149 5.89226e-07 0.011504 1.94581e-06 1.94581e-06 1186.88 138 1 
0.000194575 0.00024065 8.76358e-05 0.0120305 8.8468e-07 8.8468e-07 1207.54 139 1 
0.000220902 0.000230987 6.54713e-06 0.0115476 -2.61895e-07 -2.61895e-07 1179.04 140 1 
0.000223659 0.000222991 8.0815e-05 0.0111469 1.37254e-06 1.37254e-06 1180.74 141 1 
0.000254783 0.000232945 3.01961e-06 0.0116469 -1.53576e-07 -1.53576e-07 1183.84 142 1 
0.00027883 0.00023641 8.87987e-05 0.0118194 2.59976e-07 2.59976e-07 1223.77 143 1 
0.000282462 0.000225375 1.01422e-05 0.01126 3.00305e-06 3.00305e-06 1190.61 144 1 
0.000317826 0.000226113 8.68805e-05 0.0113055 6.30551e-07 6.30551e-07 1147.17 145 1 
-1.31301e-05 0.000231258 1.99077e-06 0.0115659 -5.24071e-07 -5.24071e-07 1195.68 146 1 
6.19501e-06 0.000231302 6.05998e-06 0.0115644 1.00974e-06 1.00974e-06 1212.67 147 1 
4.07053e-05 0.000227465 1.14683e-05 0.0113784 -9.18608e-07 -9.18608e-07 1187.87 148 1 
4.54252e-05 0.000214305 8.5356e-05 0.0107189 -2.26869e-06 -2.26869e-06 1224.64 149 1 
7.97925e-05 0.000228202 8.70949e-05 0.0114163 -3.34263e-06 -3.34263e-06 1158.84 150 1 
0.000158934 0.000257393 8.75773e-06 0.0128703 4.00929e-07 4.00929e-07 1210.85 151 1 
0.000181909 0.000258246 3.8296e-06 0.0129105 -5.88086e-07 -5.88086e-07 1186.9 152 1 
0.000211806 0.000251872 8.54939e-05 0.012588 2.6919e-06 2.6919e-06 1176.25 153 1 
0.00021564 0.00024867 8.88098e-05 0.0124442 -5.0148e-06 -5.0148e-06 1174.25 154 1 
0.000247367 0.000249437 8.55232e-05 0.012467 2.97658e-06 2.97658e-06 1180.14 155 1 
0.000285673 0.00025954 9.69896e-06 0.0129781 -2.83153e-07 -2.83153e-07 1179.42 156 1 
-3.8441e-05 0.000264431 8.02107e-05 0.0132183 8.74294e-07 8.74294e-07 1187.27 157 1 
-2.16023e-05 0.000267645 2.11244e-06 0.0133788 2.38193e-06 2.38193e-06 1198.74 158 1 
-2.40017e-05 0.000243591 6.50758e-06 0.0121801 -1.06912e-06 -1.06912e-06 1201.07 159 1 
6.12486e-06 0.000251512 7.98319e-05 0.0125727 -1.96008e-07 -1.96008e-07 1183.3 160 1 
5.29182e-05 0.000262366 3.09655e-06 0.0131195 -8.69262e-07 -8.69262e-07 1149.3 161 1 
8.55158e-05 0.000264001 8.28246e-05 0.0131982 -9.35321e-07 -9.35321e-07 1201.4 162 1 
9.3504e-05 0.000254381 7.79226e-06 0.0127192 1.77822e-06 1.77822e-06 1181.98 163 1 
0.000107364 0.0002537 7.57332e-06 0.0126846 1.84199e-07 1.84199e-07 1216.49 164 1 
0.000130624 0.000250686 5.26701e-06 0.0125356 -5.08969e-07 -5.08969e-07 1221.25 165 1 
0.000223636 0.000292451 8.1277e-05 0.0146294 -4.13416e-06 -4.13416e-06 1187.25 166 1 
0.000228358 0.000273415 1.01173e-06 0.0136705 9.3089e-07 9.3089e-07 1161.94 167 1 
0.000261525 0.000280541 4.22152e-06 0.014031 -1.78525e-06 -1.78525e-06 1193.19 168 1 
0.000261034 0.000265368 1.00593e-05 0.0132633 2.52172e-06 2.52172e-06 1205.75 169 1 
0.000296483 0.000282778 1.61264e-06 0.0141403 1.47109e-07 1.47109e-07 1168.15 170 1 
-3.81426e-05 0.000273675 5.6072e-06 0.0136883 -3.51315e-06 -3.51315e-06 1209.01 171 1 
-2.19045e-05 0.000266221 8.40741e-05 0.0133104 3.76704e-07 3.76704e-07 1196.74 172 1 
1.0339e-05 0.000278176 1.33607e-05 0.0139113 -2.96508e-06 -2.96508e-06 1180.13 173 1 
5.4085e-05 0.000286613 8.54784e-05 0.0143393 -3.40064e-06 -3.40064e-06 1182.72 174 1 
6.75474e-05 0.000286813 5.0263e-06 0.0143464 -2.22073e-06 -2.22073e-06 1203.66 175 1 
9.94876e-05 0.000279022 1.54139e-05 0.0139525 1.97608e-07 1.97608e-07 1185.6 176 1 
0.000115414 0.000272907 8.83991e-05 0.013642 2.70863e-07 2.70863e-07 1197.09 177 1 
0.000143091 0.000289542 1.29304e-07 0.014482 -1.75352e-06 -1.75352e-06 1192.46 178 1 
0.000178431 0.000288351 2.85793e-06 0.0144143 2.37975e-06 2.37975e-06 1185.03 179 1 
0.000170964 0.000276235 8.61298e-05 0.0138061 2.48875e-06 2.48875e-06 1191.54 180 1 
0.000272521 0.000310697 4.90714e-06 0.0155316 1.08139e-06 1.08139e-06 1175.17 181 1 
0.000255499 0.000283633 8.90299e-05 0.0141751 1.44962e-06 1.44962e-06 1192.99 182 1 
-4.72468e-05 0.000309742 1.36668e-05 0.0154839 1.89827e-06 1.89827e-06 1189.96 183 1 
-3.20036e-05 0.000304116 5.49142e-06 0.0152014 3.3642e-06 3.3642e-06 1184.09 184 1 
-6.00981e-06 0.000297549 2.00582e-05 0.0148807 2.94753e-07 2.94753e-07 1160.8 185 1 
-4.62048e-07 0.000298745 8.63317e-05 0.014934 7.99142e-07 7.99142e-07 1161.85 186 1 
1.93141e-05 0.000300411 8.63804e-05 0.0150232 -1.69176e-06 -1.69176e-06 1174.07 187 1 
5.77061e-05 0.000301924 8.09245e-05 0.0150925 1.00445e-06 1.00445e-06 1190.99 188 1 
8.09612e-05 0.00030154 1.75423e-05 0.0150777 8.22439e-07 8.22439e-07 1195.86 189 1 
0.000113044 0.000295884 8.46567e-05 0.014796 -8.46066e-07 -8.46066e-07 1153 190 1 
0.000154912 0.000309928 8.8735e-05 0.015498 -2.09791e-06 -2.09791e-06 1197.18 191 1 
0.000170415 0.000304134 8.5585e-05 0.0152079 -3.65836e-07 -3.65836e-07 1195.39 192 1 
0.000205805 0.000315389 7.34626e-06 0.0157675 1.49045e-06 1.49045e-06 1187.57 193 1 
0.000203016 0.000299439 1.30804e-06 0.01497 -1.23122e-06 -1.23122e-06 1196.76 194 1 
0.000252086 0.000315564 8.78367e-05 0.0157827 -1.86322e-06 -1.86322e-06 1171.68 195 1 
-5.03836e-05 0.000328378 8.80539e-05 0.0164109 3.50175e-06 3.50175e-06 1186.05 196 1 
-1.76892e-05 0.000330133 1.22462e-05 0.0165085 -1.88794e-07 -1.88794e-07 1184.22 197 1 
-9.14908e-06 0.000327904 6.78696e-07 0.0164006 -2.47415e-06 -2.47415e-06 1179.51 198 1 
8.26189e-06 0.000322442 1.54611e-06 0.0161174 2.16656e-06 2.16656e-06 1179.47 199 1 
3.58747e-05 0.000324384 4.52036e-06 0.0162212 -5.47528e-07 -5.47528e-07 1168.72 200 1 
6.90862e-05 0.000326583 5.85599e-06 0.0163287 -2.50204e-07 -2.50204e-07 1187.63 201 1 
0.00010528 0.000329603 9.01301e-05 0.016479 2.96018e-07 2.96018e-07 1178 202 1 
0.000115261 0.000330523 8.27183e-05 0.0165267 1.68378e-06 1.68378e-06 1198.88 203 1 
0.000133328 0.000332341 2.60118e-06 0.016614 1.42498e-07 1.42498e-07 1186.91 204 1 
0.000153251 0.000327095 2.0693e-06 0.0163541 -1.43399e-06 -1.43399e-06 1152.04 205 1 
0.000186483 0.000325425 1.03513e-05 0.0162728 -6.3227e-07 -6.3227e-07 1181.11 206 1 
0.000206403 0.000324476 8.59893e-06 0.0162259 -5.95125e-07 -5.95125e-07 1170.75 207 1 
0.00023959 0.000333215 1.58959e-05 0.0166623 7.77676e-07 7.77676e-07 1174.39 208 1 
0.000261631 0.00032555 8.897e-05 0.0162799 -2.0742e-06 -2.0742e-06 1185.54 209 1 
0.000290824 0.000332435 3.25888e-07 0.0166186 4.14975e-07 4.14975e-07 1178.68 210 1 
-3.17309e-07 0.000351459 8.69785e-06 0.0175732 -1.8757e-06 -1.8757e-06 1206.99 211 1 
1.59591e-05 0.000351413 8.98813e-05 0.0175712 9.55415e-07 9.55415e-07 1191.59 212 1 
4.47851e-05 0.000359263 4.33203e-06 0.0179663 -2.26609e-06 -2.26609e-06 1168.4 213 1 
5.74404e-05 0.000349301 1.12347e-07 0.0174678 -2.59136e-06 -2.59136e-06 1160.17 214 1 
8.41555e-05 0.000347526 8.2286e-05 0.0173822 -3.5511e-06 -3.5511e-06 1175.84 215 1 
0.000109096 0.000351565 8.92384e-05 0.0175797 -8.52613e-07 -8.52613e-07 1207.07 216 1 
0.000145784 0.000358583 5.91104e-06 0.0179245 2.94627e-06 2.94627e-06 1163.19 217 1 
0.00016922 0.00035038 9.7267e-07 0.0175155 1.30793e-06 1.30793e-06 1142.16 218 1 
0.000186156 0.000349434 1.75028e-08 0.0174759 -2.45668e-06 -2.45668e-06 1164.66 219 1 
0.000207108 0.000356645 2.54456e-06 0.0178277 2.84789e-06 2.84789e-06 1181.68 220 1 
0.000233467 0.000348003 4.57915e-06 0.0173988 8.57366e-07 8.57366e-07 1187.15 221 1 
0.000267803 0.00035035 8.48214e-05 0.0175127 1.02095e-06 1.02095e-06 1166.23 222 1 
0.000295192 0.000351129 5.6439e-06 0.0175606 -1.09644e-06 -1.09644e-06 1159.09 223 1 
-4.65585e-05 0.000355779 9.10425e-06 0.0177917 -4.20871e-07 -4.20871e-07 1180.79 224 1 
-3.56823e-05 0.000339294 4.6895e-06 0.0169634 1.35626e-06 1.35626e-06 1186.28 225 1 
3.37833e-05 0.000363786 8.99445e-05 0.0181892 -6.742e-07 -6.742e-07 1179.34 226 1 
9.24258e-05 0.000384945 1.03055e-05 0.0192509 4.52121e-07 4.52121e-07 1219.98 227 1 
9.47314e-05 0.000376164 4.04306e-06 0.0188199 -8.42682e-06 -8.42682e-06 1220.63 228 1 
0.000119741 0.000374259 8.28712e-05 0.0187115 4.27033e-07 4.27033e-07 1197.37 229 1 
0.000148902 0.00037753 1.58131e-05 0.0188756 -2.84377e-07 -2.84377e-07 1185.77 230 1 
0.000168758 0.000375902 9.08417e-06 0.0187935 -3.89428e-07 -3.89428e-07 1164.82 231 1 
0.000177775 0.000375451 8.77413e-05 0.0187714 2.86226e-07 2.86226e-07 1165.5 232 1 
0.000205562 0.000368839 1.8559e-05 0.0184417 8.84332e-07 8.84332e-07 1159.25 233 1 
0.000244414 0.000380307 3.17584e-06 0.0190118 1.08114e-06 1.08114e-06 1187.08 234 1 
0.000267402 0.000379174 8.35415e-06 0.0189547 2.41185e-06 2.41185e-06 1174.56 235 1 
-6.50333e-05 0.000380813 8.79819e-05 0.0190385 1.18315e-06 1.18315e-06 1218.29 236 1 
-4.33803e-05 0.000376383 2.09458e-06 0.0188167 4.17787e-07 4.17787e-07 1205.11 237 1 
-1.32361e-05 0.000381961 7.99154e-05 0.0190992 -1.42373e-06 -1.42373e-06 1169.15 238 1 
-1.09728e-05 0.000368934 9.26264e-06 0.0184481 5.87514e-09 5.87514e-09 1195.61 239 1 
3.60315e-05 0.000375781 8.78569e-06 0.0187881 3.92737e-07 3.92737e-07 1168.3 240 1 
0.000107206 0.0004104 7.66538e-05 0.0205154 2.83444e-06 2.83444e-06 1181.39 241 1 
0.000102756 0.000394969 8.29437e-05 0.0197518 -2.34079e-06 -2.34079e-06 1197.7 242 1 
0.000148105 0.000399347 2.24678e-06 0.0199718 -8.87486e-07 -8.87486e-07 1185.66 243 1 
0.000180533 0.000405313 1.12012e-05 0.0202655 1.29859e-06 1.29859e-06 1178.51 244 1 
0.000203726 0.000406755 7.60745e-05 0.0203362 1.04986e-06 1.04986e-06 1172.04 245 1 
0.000209287 0.000401201 8.60797e-05 0.0200578 5.76566e-07 5.76566e-07 1164.42 246 1 
0.000232143 0.00039573 8.86387e-05 0.0197885 -2.83209e-07 -2.83209e-07 1174.82 247 1 
0.000283905 0.000407362 8.87147e-05 0.0203682 1.61562e-07 1.61562e-07 1193.58 248 1 
0.000285198 0.000398271 1.19104e-06 0.0199143 -1.47482e-06 -1.47482e-06 1202.37 249 1 
-5.0732e-05 0.00039789 8.56917e-05 0.0198951 6.43405e-07 6.43405e-07 1208.47 250 1 
-3.6585e-05 0.000400307 4.43715e-06 0.0200201 -9.97181e-07 -9.97181e-07 1202.76 251 1 
8.71392e-06 0.000400879 2.66491e-06 0.0200481 -2.86562e-06 -2.86562e-06 1169.1 252 1 
3.49044e-05 0.000402968 1.30871e-05 0.0201467 4.52623e-07 4.52623e-07 1174.78 253 1 
5.81018e-05 0.000408075 5.54511e-06 0.0204076 -2.20294e-06 -2.20294e-06 1149.16 254 1 
8.66031e-05 0.000407363 3.32823e-06 0.0203623 4.93695e-06 4.93695e-06 1189.37 255 1 
0.000150952 0.000419811 9.55084e-06 0.0209909 -7.53174e-08 -7.53174e-08 1185.06 256 1 
0.000158228 0.000415315 4.1862e-06 0.0207665 -1.63105e-07 -1.63105e-07 1199.46 257 1 
0.000185214 0.000422366 4.83861e-06 0.0211209 -1.9393e-06 -1.9393e-06 1183.08 258 1 
0.000238246 0.000432779 8.66486e-05 0.0216353 8.91337e-07 8.91337e-07 1178.25 259 1 
0.000239581 0.000426321 8.98012e-05 0.0213149 2.21451e-06 2.21451e-06 1179.1 260 1 
0.000268841 0.000421775 8.80387e-07 0.0210892 -2.22581e-07 -2.22581e-07 1184.52 261 1 
-6.72661e-05 0.000425467 1.23416e-05 0.0212702 2.86547e-06 2.86547e-06 1184.6 262 1 
-4.09362e-05 0.000421011 6.48914e-06 0.0210518 1.15628e-07 1.15628e-07 1193.7 263 1 
-1.74283e-05 0.000428126 7.48479e-06 0.0214062 1.96581e-07 1.96581e-07 1181.66 264 1 
2.05507e-05 0.000441458 1.09077e-07 0.0220747 -1.47776e-06 -1.47776e-06 1196.25 265 1 
9.68125e-06 0.000413056 8.50428e-05 0.0206588 -2.53956e-06 -2.53956e-06 1167.72 266 1 
5.18901e-05 0.00042448 2.1622e-06 0.0212304 -2.8588e-06 -2.8588e-06 1178.03 267 1 
8.72618e-05 0.000430034 1.27088e-06 0.0215042 -9.99085e-07 -9.99085e-07 1184.51 268 1 
0.000105764 0.000431788 3.34212e-06 0.0215949 -3.57561e-06 -3.57561e-06 1158.59 269 1 
0.00013148 0.000424553 8.40987e-05 0.0212245 8.6741e-07 8.6741e-07 1166.7 270 1 
0.000193514 0.000446895 5.26522e-06 0.0223409 1.16009e-06 1.16009e-06 1159.47 271 1 
0.000216281 0.000449376 2.85077e-06 0.0224712 -2.62437e-06 -2.62437e-06 1164.22 272 1 
0.000250542 0.00045562 7.0481e-06 0.022789 -3.37571e-06 -3.37571e-06 1172.89 273 1 
0.000253119 0.000440644 8.9311e-05 0.0220268 3.16967e-06 3.16967e-06 1173.22 274 1 
-5.31652e-05 0.000455713 1.70159e-05 0.022792 -3.13835e-06 -3.13835e-06 1184.53 275 1 
-5.36227e-05 0.000443793 1.33809e-06 0.0221847 2.30807e-06 2.30807e-06 1177.91 276 1 
-8.24778e-06 0.000451371 1.03101e-05 0.022568 -8.7222e-07 -8.7222e-07 1174.23 277 1 
2.06154e-05 0.000459749 8.99496e-07 0.022983 -1.8414e-08 -1.8414e-08 1182.3 278 1 
5.10559e-05 0.000461467 7.61292e-05 0.0230708 1.1545e-06 1.1545e-06 1176.9 279 1 
5.08651e-05 0.000447678 8.2654e-06 0.0223825 1.14295e-06 1.14295e-06 1182.72 280 1 
8.98313e-05 0.000447831 7.97176e-05 0.0223901 7.88941e-07 7.88941e-07 1182.85 281 1 
8.15564e-05 0.000441325 5.46763e-06 0.0220657 3.73823e-07 3.73823e-07 1184.89 282 1 
0.000111757 0.000436852 7.5679e-06 0.0218426 2.52716e-07 2.52716e-07 1157.91 283 1 
0.000151514 0.000448683 1.05693e-05 0.0224359 7.14601e-07 7.14601e-07 1174.43 284 1 
0.000156425 0.000450619 8.80308e-06 0.0225366 -3.55951e-06 -3.55951e-06 1179.47 285 1 
0.000107603 1.16386e-05 4.21786e-05 0.000580676 8.92076e-07 8.92076e-07 1213.26 286 1 
-0.00012885 0.000898915 2.8233e-05 0.0449473 -2.6398e-06 -2.6398e-06 1214.9 287 1 
-1.25668e-05 0.000882344 2.74814e-05 0.044117 -4.69279e-07 -4.69279e-07 1195.49 288 1 
4.73001e-06 0.000876093 3.30193e-05 0.0438026 4.48341e-07 4.48341e-07 1201.92 289 1 
0.000197477 8.67345e-06 3.57734e-05 0.000432132 1.54659e-06 1.54659e-06 1257.58 290 1 
0.000245539 9.27996e-06 2.45875e-05 0.000469219 -1.28753e-06 -1.28753e-06 1162.87 291 1 
0.000240589 1.74991e-05 2.6065e-05 0.000881481 -3.85085e-06 -3.85085e-06 1189.65 292 1 
0.000103033 0.00089552 2.98661e-05 0.0447768 -4.28796e-08 -4.28796e-08 1160.54 293 1 
4.79521e-05 0.000898785 2.2997e-05 0.0449412 2.93993e-07 2.93993e-07 1234.64 294 1 
0.000146106 0.00089444 2.27436e-05 0.0447176 3.00822e-06 3.00822e-06 1229.04 295 1 
0.0003524 1.43495e-05 2.8919e-05 0.000712801 1.23901e-06 1.23901e-06 1178.53 296 1 
2.2603e-05 2.16129e-05 2.70498e-05 0.00107545 4.43542e-06 4.43542e-06 1198.99 297 1 
-0.000137127 0.000883861 3.32761e-05 0.0441922 5.14091e-07 5.14091e-07 1203.86 298 1 
-0.000108185 0.000892462 2.70345e-05 0.0446278 -2.595e-06 -2.595e-06 1226.1 299 1 
-9.6787e-05 0.000891159 2.79079e-05 0.0445651 -3.75894e-06 -3.75894e-06 1212.42 300 1 
9.5078e-05 3.14304e-05 3.23918e-05 0.00157118 2.10032e-06 2.10032e-06 1190.11 301 1 
0.0001172 3.29164e-05 1.99278e-05 0.00165099 -3.90218e-06 -3.90218e-06 1201.64 302 1 
0.000147896 3.19274e-05 2.99168e-05 0.00159322 7.68817e-09 7.68817e-09 1148.32 303 1 
0.000173421 3.75207e-05 2.84439e-05 0.00187949 -2.35729e-06 -2.35729e-06 1188.03 304 1 
0.000200329 3.44635e-05 1.88151e-05 0.00172167 -2.62326e-07 -2.62326e-07 1229.82 305 1 
0.000219573 2.82032e-05 2.08864e-05 0.00140778 2.05971e-06 2.05971e-06 1262.18 306 1 
0.000248889 3.87629e-05 3.55161e-05 0.00194042 -1.43485e-06 -1.43485e-06 1192.14 307 1 
0.000258864 3.58073e-05 1.66309e-05 0.00179352 -1.02214e-06 -1.02214e-06 1204.92 308 1 
0.000282877 3.1198e-05 3.16166e-05 0.0015615 -9.68802e-08 -9.68802e-08 1172.07 309 1 
0.000313076 2.57203e-05 2.21586e-05 0.001281 3.43505e-06 3.43505e-06 1216.67 310 1 
0.00032799 3.49503e-05 3.24429e-05 0.00174571 2.55163e-06 2.55163e-06 1220.96 311 1 
1.14696e-06 4.39121e-05 4.05469e-05 0.00218768 3.81579e-06 3.81579e-06 1195.31 312 1 
2.66728e-05 4.16983e-05 2.48226e-05 0.00208634 9.76959e-07 9.76959e-07 1210.07 313 1 
6.96288e-05 3.96621e-05 2.03642e-05 0.00197948 1.22894e-06 1.22894e-06 1188.68 314 1 
8.04921e-05 4.57973e-05 2.12412e-05 0.00229128 7.53513e-07 7.53513e-07 1185.53 315 1 
0.000113444 5.03092e-05 3.92888e-05 0.00251995 -1.32632e-06 -1.32632e-06 1197.46 316 1 
0.000142806 5.78507e-05 3.33893e-05 0.0028898 1.41769e-06 1.41769e-06 1191.38 317 1 
0.000176009 5.26454e-05 2.91665e-05 0.00263036 2.6048e-06 2.6048e-06 1201.5 318 1 
0.000205548 6.57168e-05 2.42243e-05 0.00328913 -1.31729e-06 -1.31729e-06 1185.43 319 1 
0.000227073 6.49368e-05 2.48533e-05 0.00324277 1.48188e-06 1.48188e-06 1201.79 320 1 
0.000230761 4.94153e-05 3.98466e-05 0.00247402 -2.76499e-06 -2.76499e-06 1223.28 321 1 
0.000292647 7.32104e-05 2.84766e-05 0.00365529 1.92362e-06 1.92362e-06 1209.13 322 1 
0.000287477 5.87704e-05 3.04818e-05 0.00293691 -9.18363e-07 -9.18363e-07 1192.81 323 1 
0.000319344 5.38482e-05 2.70993e-05 0.00268292 2.34975e-06 2.34975e-06 1216.65 324 1 
0.000349107 5.09164e-05 2.39763e-05 0.00254132 1.16576e-06 1.16576e-06 1196.85 325 1 
1.91339e-05 6.71358e-05 2.15101e-05 0.003358 -3.84309e-07 -3.84309e-07 1192.1 326 1 
2.86414e-05 6.0572e-05 3.04341e-05 0.00303308 -4.01239e-07 -4.01239e-07 1207.63 327 1 
5.03057e-05 5.61257e-05 3.15575e-05 0.00280537 1.4897e-06 1.4897e-06 1208.96 328 1 
8.43545e-05 6.53872e-05 1.84191e-05 0.00326834 9.90556e-07 9.90556e-07 1179.82 329 1 
0.00011277 6.29719e-05 2.77512e-05 0.00314829 4.50771e-07 4.50771e-07 1188.98 330 1 
0.000172199 7.41327e-05 3.40812e-05 0.00370587 6.19475e-07 6.19475e-07 1207.62 331 1 
0.000214724 9.28936e-05 2.88461e-05 0.00464413 -3.00932e-07 -3.00932e-07 1211.96 332 1 
0.00023758 8.48716e-05 1.5963e-05 0.00425415 -3.37015e-06 -3.37015e-06 1196.73 333 1 
0.000232807 7.73591e-05 3.98725e-05 0.00387473 -2.00525e-06 -2.00525e-06 1223.86 334 1 
0.000271693 7.87262e-05 2.71288e-05 0.00392876 3.56158e-06 3.56158e-06 1179.24 335 1 
0.00029422 8.85271e-05 2.60428e-05 0.00442871 -1.63808e-06 -1.63808e-06 1205.39 336 1 
0.000317059 8.62877e-05 1.62653e-05 0.00431716 -8.19411e-07 -8.19411e-07 1189.98 337 1 
0.000341148 8.18922e-05 2.19462e-05 0.00410165 -4.14919e-06 -4.14919e-06 1186.61 338 1 
-3.51582e-06 8.71418e-05 3.21137e-05 0.0043585 9.80714e-07 9.80714e-07 1191.03 339 1 
4.49067e-05 9.2327e-05 3.95567e-05 0.00461492 8.57425e-07 8.57425e-07 1187.31 340 1 
5.25187e-05 9.16049e-05 1.3487e-05 0.00457744 7.1327e-07 7.1327e-07 1203.93 341 1 
7.41663e-05 8.27741e-05 3.10718e-05 0.00413672 1.0842e-06 1.0842e-06 1193.23 342 1 
0.000105074 8.00986e-05 2.51132e-05 0.00400379 -3.31706e-07 -3.31706e-07 1178.34 343 1 
0.000127093 9.10129e-05 2.86371e-05 0.00455238 8.22894e-08 8.22894e-08 1190.44 344 1 
0.000142991 8.60031e-05 2.49308e-05 0.00430574 -1.89558e-06 -1.89558e-06 1193.44 345 1 
0.000196698 9.03226e-05 3.81127e-05 0.00451617 -5.93907e-07 -5.93907e-07 1177.38 346 1 
0.000248105 0.000108669 2.94361e-05 0.00543143 6.98226e-08 6.98226e-08 1182.6 347 1 
0.000263124 0.000102481 2.64808e-05 0.0051205 1.36715e-06 1.36715e-06 1172.56 348 1 