ITEM: TIMESTEP
1200
ITEM: NUMBER OF ATOMS
2220
ITEM: BOX BOUNDS xy xz yz pp pp pp
-7.88813e-05 0.0003606 -7.88813e-05
0 0.0009015 0
0 9.015e-05 0
ITEM: ATOMS x y z vx vy vy c_rho_peratom id type 
3.88365e-05 1.10451e-05 8.74504e-05 0.00185428 -0.000751578 -0.000751578 1199.16 1 1 
0.000193796 0.000888913 8.49838e-05 0.0447888 0.000851476 0.000851476 1218.11 2 1 
8.59272e-05 1.1881e-05 5.21574e-06 0.000899616 0.0012804 0.0012804 1144.49 3 1 
0.000234303 0.0008975 8.79288e-05 0.0453947 0.00112612 0.00112612 1286 4 1 
0.00011581 0.000899323 8.51493e-05 0.0441076 -0.00195623 -0.00195623 1226.08 5 1 
0.00017671 9.02333e-06 8.44325e-05 0.000267828 0.000192722 0.000192722 1173.27 6 1 
-7.06122e-05 0.000897219 1.15755e-05 0.0454543 0.000751983 0.000751983 1236.02 7 1 
0.000213918 7.77633e-06 8.85326e-05 0.0017716 0.000238147 0.000238147 1289.43 8 1 
0.000250225 4.89036e-06 2.43885e-06 0.000992514 0.000515705 0.000515705 1205.43 9 1 
0.000256794 1.89091e-05 8.5055e-05 0.00142977 -0.000784544 -0.000784544 1210.95 10 1 
0.00028034 1.26275e-05 4.05125e-06 0.00146592 0.000726893 0.000726893 1181.25 11 1 
0.000316292 3.86833e-06 7.79161e-06 0.00217436 -0.000384428 -0.000384428 1243.13 12 1 
8.23524e-05 0.000898228 3.29832e-06 0.0448377 -0.000265425 -0.000265425 1227.04 13 1 
-2.36142e-07 8.20121e-06 5.79023e-06 0.000235805 0.000205178 0.000205178 1237.69 14 1 
6.26857e-05 0.000901455 9.78791e-06 0.0446875 -0.000721027 -0.000721027 1287.55 15 1 
3.56993e-05 3.82318e-05 8.69307e-05 0.0015573 -7.73427e-05 -7.73427e-05 1226.62 16 1 
6.55655e-05 3.7581e-05 5.82727e-06 0.00271962 0.000934705 0.000934705 1197.76 17 1 
8.49248e-05 3.62812e-05 3.25562e-06 0.00104381 -0.00169609 -0.00169609 1180.49 18 1 
0.000105551 4.4852e-05 8.34992e-05 0.00270358 -8.13205e-05 -8.13205e-05 1208.92 19 1 
0.000134448 3.83404e-05 9.14277e-06 0.00249309 -0.000216892 -0.000216892 1231.01 20 1 
0.000156548 3.94901e-05 8.83605e-05 0.00299681 0.000623366 0.000623366 1229.46 21 1 
0.000173911 3.29331e-05 4.34561e-06 0.00249536 -0.00186498 -0.00186498 1216.64 22 1 
0.00020486 3.09397e-05 1.06247e-06 0.00252142 -0.00109491 -0.00109491 1243.91 23 1 
0.00023497 4.11632e-05 1.51562e-05 0.00180972 0.0011436 0.0011436 1233.39 24 1 
0.000251277 4.33618e-05 8.91956e-05 0.0043794 0.00024063 0.00024063 1227.45 25 1 
0.000284204 3.19187e-05 5.75744e-06 0.00164388 0.000553893 0.000553893 1200.84 26 1 
0.000302904 3.93883e-05 1.70977e-05 0.00302026 -0.00119948 -0.00119948 1211.96 27 1 
0.000328297 3.70277e-05 8.81277e-05 0.0014048 0.000830851 0.000830851 1214.02 28 1 
0.000354254 4.52287e-05 3.97593e-06 0.00282676 0.000444432 0.000444432 1231.51 29 1 
1.3664e-05 3.51877e-05 8.71555e-05 -0.000328696 0.000830172 0.000830172 1247.01 30 1 
4.48282e-05 6.2092e-05 8.77379e-05 0.00200877 0.000706795 0.000706795 1208.31 31 1 
6.29902e-05 4.70074e-05 3.88055e-06 0.00315256 0.00112186 0.00112186 1208.94 32 1 
8.36679e-05 6.24847e-05 1.36693e-06 0.00358641 0.000297416 0.000297416 1211.68 33 1 
0.000112789 4.78218e-05 3.0062e-07 0.00302501 1.53303e-05 1.53303e-05 1206.86 34 1 
0.000144274 6.16542e-05 8.93851e-05 0.00340609 -0.000917041 -0.000917041 1232.03 35 1 
0.000166426 5.91853e-05 9.65351e-06 0.00344672 0.00158205 0.00158205 1222.64 36 1 
0.000184691 5.61642e-05 2.37382e-06 0.00110067 1.08505e-05 1.08505e-05 1225.99 37 1 
0.000206288 5.02206e-05 8.98178e-05 0.0030407 0.000352126 0.000352126 1238.79 38 1 
0.000238869 5.45108e-05 2.24928e-06 0.00154459 0.000144817 0.000144817 1239.63 39 1 
0.000263621 5.70381e-05 7.89698e-06 0.00300162 0.000405677 0.000405677 1205.05 40 1 
0.000284061 5.52921e-05 7.80001e-06 0.00340586 -0.00020998 -0.00020998 1223.75 41 1 
0.000306452 5.61897e-05 8.77277e-05 0.00169168 -0.000311465 -0.000311465 1230.21 42 1 
0.000335402 4.84367e-05 2.75858e-06 0.00276174 -3.56344e-05 -3.56344e-05 1212.17 43 1 
0.000351947 5.08731e-05 8.99877e-05 0.00284479 -0.000393502 -0.000393502 1230.81 44 1 
2.13168e-05 5.58981e-05 3.7663e-06 0.00266383 0.000604937 0.000604937 1223.64 45 1 
6.41299e-05 8.70753e-05 7.4047e-06 0.00387912 -0.000514418 -0.000514418 1229.78 46 1 
7.66357e-05 7.88089e-05 8.75022e-05 0.00327828 -0.000592365 -0.000592365 1222.9 47 1 
9.74255e-05 8.20749e-05 8.98358e-05 0.00413779 0.000433794 0.000433794 1224.57 48 1 
0.000133947 8.34681e-05 4.54692e-08 0.00413845 0.000778467 0.000778467 1212.37 49 1 
0.000150917 8.63778e-05 6.04289e-06 0.00518214 0.00122175 0.00122175 1194.89 50 1 
0.000177179 8.27655e-05 8.41434e-05 0.00756875 0.000761113 0.000761113 1204.03 51 1 
0.000214184 8.81403e-05 2.66992e-06 0.00421308 -0.000139534 -0.000139534 1223.63 52 1 
0.000228533 8.45303e-05 7.56506e-06 0.00438288 -0.000400514 -0.000400514 1228.21 53 1 
0.000257527 7.87063e-05 4.335e-06 0.00357357 0.000665567 0.000665567 1186.21 54 1 
0.000266191 9.05513e-05 2.49313e-06 0.00384256 -0.000651741 -0.000651741 1180.3 55 1 
0.000300444 8.284e-05 8.75337e-05 0.00304167 -0.00036362 -0.00036362 1203.53 56 1 
0.000329925 7.64642e-05 5.5427e-06 0.00424533 0.00185891 0.00185891 1194.47 57 1 
-7.01097e-06 8.59884e-05 8.3303e-05 0.00320574 0.000156642 0.000156642 1231.53 58 1 
7.47903e-06 8.74643e-05 8.63443e-05 0.00440753 0.00120124 0.00120124 1219.49 59 1 
3.29045e-05 8.15515e-05 6.00275e-06 0.00464941 -0.000143484 -0.000143484 1196.91 60 1 
6.27011e-05 0.000107928 5.21229e-06 0.00497428 0.00011304 0.00011304 1231.14 61 1 
9.19195e-05 0.000100028 7.94391e-07 0.00456821 0.000273802 0.000273802 1241.49 62 1 
0.00012003 0.000111209 3.21739e-07 0.00465772 0.000568673 0.000568673 1240.67 63 1 
0.000138714 0.000103888 5.43712e-06 0.0054272 -0.00118928 -0.00118928 1231.46 64 1 
0.000177175 0.000107604 1.0452e-05 0.00495201 2.66784e-05 2.66784e-05 1205.67 65 1 
0.000192654 0.000110479 8.75262e-06 0.00588484 0.000262952 0.000262952 1207.7 66 1 
0.000213622 9.96955e-05 8.51157e-05 0.00421309 -0.00136492 -0.00136492 1213.01 67 1 
0.000244735 0.000107069 8.20183e-05 0.00603168 -0.000206895 -0.000206895 1212.83 68 1 
0.000247341 0.000105367 1.86088e-06 0.00429189 0.00155942 0.00155942 1192.07 69 1 
0.000285633 9.95085e-05 8.65717e-05 0.00602822 -0.00122325 -0.00122325 1212.16 70 1 
0.000310947 0.000100075 9.04174e-06 0.00574309 -0.000974015 -0.000974015 1194.54 71 1 
0.000342839 0.000112759 1.23116e-06 0.00570401 -0.000350186 -0.000350186 1218.79 72 1 
8.54611e-06 0.000104952 3.96536e-06 0.00505712 0.000231169 0.000231169 1219.92 73 1 
2.53271e-05 0.000104265 7.54989e-06 0.00521591 -0.000603705 -0.000603705 1213.78 74 1 
4.97978e-05 0.000107305 7.4848e-06 0.00566692 0.000484276 0.000484276 1224.65 75 1 
7.47013e-05 0.000119553 4.88995e-06 0.00639472 -0.00134741 -0.00134741 1209.51 76 1 
0.00010794 0.000125826 8.92764e-05 0.00700881 -0.000497045 -0.000497045 1222.14 77 1 
0.000133859 0.000131857 3.28673e-06 0.00712667 0.000843085 0.000843085 1247.5 78 1 
0.00016559 0.000126897 8.87e-05 0.00685081 0.000102633 0.000102633 1199.92 79 1 
0.000183155 0.000134684 3.29681e-06 0.00555625 -2.02695e-05 -2.02695e-05 1200.32 80 1 
0.000208979 0.000131655 4.92093e-06 0.00587204 0.000188116 0.000188116 1193.55 81 1 
0.00023414 0.000133882 7.48258e-06 0.0065071 0.000381076 0.000381076 1198.29 82 1 
0.000252529 0.000133644 6.82371e-06 0.00662017 -0.000459363 -0.000459363 1212.24 83 1 
0.000286325 0.000129662 6.25524e-06 0.00595758 0.00132787 0.00132787 1227.02 84 1 
0.000300118 0.000129534 1.08726e-05 0.0057379 0.00103884 0.00103884 1217.29 85 1 
0.000327317 0.000129594 8.71107e-05 0.00623448 0.000547924 0.000547924 1201.04 86 1 
0.000346197 0.00012556 2.03719e-06 0.00568195 -0.000740078 -0.000740078 1210.11 87 1 
2.08196e-05 0.00012881 8.2217e-07 0.00681083 -0.000360335 -0.000360335 1195.56 88 1 
4.15574e-05 0.000124801 8.44989e-05 0.00652042 0.00104646 0.00104646 1201.56 89 1 
8.56386e-05 0.000138837 8.98884e-05 0.00736763 -0.000590052 -0.000590052 1192.11 90 1 
9.73674e-05 0.000143902 1.23502e-05 0.00669365 0.000911946 0.000911946 1207.57 91 1 
0.000131689 0.00016182 8.93383e-05 0.00981945 -0.000820906 -0.000820906 1215.62 92 1 
0.000141541 0.000150644 2.18961e-06 0.00686615 -9.50416e-05 -9.50416e-05 1218.96 93 1 
0.000178092 0.000150984 7.21943e-07 0.00868168 -0.000423118 -0.000423118 1220.32 94 1 
0.000196865 0.00014844 6.07822e-06 0.00629716 0.000373911 0.000373911 1231.04 95 1 
0.000232026 0.000148332 1.07052e-06 0.00706853 7.27487e-05 7.27487e-05 1200.38 96 1 
0.000248587 0.000160359 4.91758e-06 0.00754779 0.000717595 0.000717595 1197.51 97 1 
0.000271102 0.000149877 1.24313e-06 0.00675682 -0.00022546 -0.00022546 1212.2 98 1 
0.000288495 0.000151218 8.73457e-05 0.0089944 0.000331465 0.000331465 1211.46 99 1 
0.000316847 0.000153563 8.11399e-05 0.00871032 0.000286359 0.000286359 1212.92 100 1 
0.000345124 0.000147903 3.70029e-06 0.00870956 -0.00194491 -0.00194491 1210.43 101 1 
1.94741e-06 0.00015154 8.72447e-05 0.00743397 -0.000748027 -0.000748027 1208.99 102 1 
1.95841e-05 0.000151801 8.69421e-05 0.00727456 1.95897e-05 1.95897e-05 1206.66 103 1 
4.71505e-05 0.000151317 8.71841e-05 0.00778067 0.000654154 0.000654154 1222.73 104 1 
8.08672e-05 0.000152611 1.18974e-05 0.00663837 0.000215604 0.000215604 1195.85 105 1 
0.00010344 0.000179881 8.13563e-06 0.00987024 0.000631632 0.000631632 1170.45 106 1 
0.000140991 0.000174856 8.68174e-05 0.00862949 -0.000727579 -0.000727579 1202.27 107 1 
0.000172458 0.000175334 4.97218e-06 0.00807352 0.000437915 0.000437915 1212.37 108 1 
0.000179898 0.000168157 8.63369e-05 0.0082393 0.00020132 0.00020132 1217.96 109 1 
0.000214301 0.00017715 1.1172e-05 0.00896455 0.00131182 0.00131182 1210.77 110 1 
0.000234489 0.000185106 9.85187e-06 0.00966479 -0.000414324 -0.000414324 1185.23 111 1 
0.000265109 0.000179704 3.89607e-06 0.00845466 7.53792e-05 7.53792e-05 1188.27 112 1 
0.000281942 0.000181917 9.32291e-07 0.00910188 0.000821217 0.000821217 1206.29 113 1 
0.000299081 0.000183605 7.98129e-05 0.0083079 -0.000467872 -0.000467872 1197.54 114 1 
0.000334121 0.000170608 8.68614e-05 0.00851648 0.000889421 0.000889421 1199.34 115 1 
-5.94668e-06 0.000175568 7.75981e-06 0.00893412 0.000240073 0.000240073 1201.46 116 1 
2.40887e-05 0.00016904 1.18812e-05 0.00801054 -0.000553925 -0.000553925 1221.78 117 1 
4.64265e-05 0.000182257 8.48676e-05 0.00792871 -0.000332861 -0.000332861 1226.27 118 1 
6.98717e-05 0.000181992 6.03579e-06 0.0105801 -0.000592748 -0.000592748 1196.13 119 1 
8.21268e-05 0.000173825 3.6306e-06 0.0101806 0.000424818 0.000424818 1177.18 120 1 
0.000135049 0.000204733 8.74259e-05 0.0107712 -0.00133483 -0.00133483 1198.3 121 1 
0.000146938 0.00020189 8.96577e-06 0.00986404 -0.000682885 -0.000682885 1206.59 122 1 
0.000179773 0.000206053 4.04722e-06 0.0103463 0.000871741 0.000871741 1179.85 123 1 
0.000206592 0.000202616 8.91709e-05 0.0107047 -0.000846189 -0.000846189 1206.91 124 1 
0.000232353 0.000208667 1.09782e-05 0.0115447 -0.000984425 -0.000984425 1185.99 125 1 
0.000244904 0.000200405 7.74843e-06 0.00893729 -0.000398638 -0.000398638 1182.06 126 1 
0.000280575 0.000208574 8.52678e-05 0.0114449 0.000107552 0.000107552 1194.81 127 1 
0.000299554 0.000194759 7.29362e-06 0.0103201 -6.3007e-05 -6.3007e-05 1205.16 128 1 
0.000327183 0.000202881 1.1614e-05 0.0105631 -0.000688703 -0.000688703 1188.28 129 1 
-1.01384e-05 0.000209777 5.35306e-06 0.0108547 0.000451771 0.000451771 1184.37 130 1 
1.37543e-05 0.00020623 8.74199e-05 0.0110987 0.000246184 0.000246184 1180.27 131 1 
3.38077e-05 0.000200048 8.34319e-05 0.00974481 0.000859234 0.000859234 1211.1 132 1 
6.38495e-05 0.000200964 7.66507e-06 0.0102081 0.000136478 0.000136478 1194.92 133 1 
8.89761e-05 0.000216139 9.85355e-07 0.010965 0.000232271 0.000232271 1187.34 134 1 
0.000117023 0.000200594 6.29371e-07 0.00951489 0.000373321 0.000373321 1200.72 135 1 
0.000151262 0.000228691 8.99945e-05 0.010674 -0.00135678 -0.00135678 1200.1 136 1 
0.00017028 0.000228367 1.21001e-05 0.0105368 0.000439328 0.000439328 1204.03 137 1 
0.000198223 0.000225685 8.72839e-05 0.010716 0.00025421 0.00025421 1196.06 138 1 
0.000226479 0.000231916 8.94007e-05 0.0110232 0.000112325 0.000112325 1168.84 139 1 
0.000252988 0.000231958 4.48084e-06 0.010838 0.00146448 0.00146448 1176.5 140 1 
0.000271384 0.000223678 3.06688e-07 0.0104357 -0.000767537 -0.000767537 1186.21 141 1 
0.000290627 0.000223624 9.14602e-06 0.013029 0.000181436 0.000181436 1193.14 142 1 
0.000322592 0.00022638 5.88543e-07 0.0119565 -0.000959638 -0.000959638 1195.88 143 1 
0.000334665 0.000224206 1.96077e-06 0.0105422 0.000191815 0.000191815 1196.09 144 1 
-2.48273e-07 0.000220292 8.65844e-05 0.0102746 0.00102983 0.00102983 1172.26 145 1 
2.6495e-05 0.000229009 8.35419e-06 0.0113613 -0.000388183 -0.000388183 1179.2 146 1 
4.71305e-05 0.000227835 1.02428e-05 0.0121969 -4.15616e-05 -4.15616e-05 1171.7 147 1 
8.35178e-05 0.000229612 9.42272e-06 0.0128831 -0.000658289 -0.000658289 1185.96 148 1 
9.84142e-05 0.000221238 3.22306e-06 0.0102214 0.000476129 0.000476129 1190.68 149 1 
0.000117246 0.000226838 1.23679e-06 0.010689 -0.000305828 -0.000305828 1180.56 150 1 
0.000159893 0.000255711 4.08045e-06 0.0139654 0.00148703 0.00148703 1188.58 151 1 
0.00018585 0.000259547 7.80844e-06 0.0130878 -0.000326682 -0.000326682 1189.86 152 1 
0.00021402 0.000252612 8.17991e-05 0.0138876 -3.70916e-05 -3.70916e-05 1174.27 153 1 
0.000227484 0.000246047 6.41535e-06 0.0121182 -0.000706962 -0.000706962 1159.1 154 1 
0.000263851 0.000244449 6.23841e-07 0.0126357 0.000509558 0.000509558 1183.9 155 1 
0.000282704 0.0002558 8.34963e-06 0.0126935 0.00062754 0.00062754 1196.6 156 1 
0.000304857 0.000250899 1.7242e-07 0.011771 -0.000406153 -0.000406153 1176.32 157 1 
0.000329155 0.000261103 2.9849e-06 0.0122666 -0.000541921 -0.000541921 1169.41 158 1 
-3.52682e-06 0.000247023 3.949e-06 0.0127972 0.000241902 0.000241902 1139.61 159 1 
1.86775e-05 0.000246145 8.00466e-05 0.011643 -0.00041952 -0.00041952 1132.19 160 1 
5.36615e-05 0.000257819 2.53056e-07 0.0122075 0.000853966 0.000853966 1191.73 161 1 
7.54998e-05 0.000263439 8.29054e-05 0.0135108 0.00094216 0.00094216 1204.85 162 1 
9.51261e-05 0.000260119 5.76145e-06 0.0144333 -0.000992143 -0.000992143 1160.58 163 1 
0.000113238 0.000251977 6.5436e-06 0.0118122 -0.000405251 -0.000405251 1135.07 164 1 
0.000143132 0.000248377 2.26885e-06 0.0121822 8.78157e-05 8.78157e-05 1181.7 165 1 
0.000182411 0.000284156 8.35225e-05 0.0148268 -0.000524811 -0.000524811 1201.06 166 1 
0.00020557 0.000274226 8.71506e-05 0.0133006 0.000660944 0.000660944 1191.23 167 1 
0.000229884 0.000278739 7.3942e-06 0.0149308 -7.08987e-05 -7.08987e-05 1150.27 168 1 
0.00025214 0.000266764 8.73395e-05 0.0134696 -0.000193862 -0.000193862 1155.17 169 1 
0.000272659 0.000275644 8.93789e-06 0.0136676 -4.84306e-05 -4.84306e-05 1194.06 170 1 
0.000296875 0.000273431 8.98182e-05 0.0129356 0.000350334 0.000350334 1189.6 171 1 
0.000323248 0.000267878 2.59598e-06 0.0138767 -0.000286233 -0.000286233 1168.85 172 1 
-1.62273e-05 0.000279806 9.64006e-06 0.0146611 -0.000752487 -0.000752487 1184.48 173 1 
1.2796e-05 0.000282909 2.36356e-06 0.0138328 -0.00124306 -0.00124306 1151.26 174 1 
3.75131e-05 0.000284072 5.79622e-06 0.013536 0.000348164 0.000348164 1166.85 175 1 
6.5868e-05 0.000273058 1.55793e-05 0.0135781 0.000694937 0.000694937 1188.48 176 1 
8.01252e-05 0.000275912 1.77944e-06 0.0145457 -0.000573981 -0.000573981 1206.01 177 1 
0.000100537 0.000286695 8.69117e-05 0.0127604 0.000191709 0.000191709 1172.66 178 1 
0.000137304 0.000280759 5.66327e-06 0.0146163 -0.00046828 -0.00046828 1165.68 179 1 
0.00015364 0.000273839 2.52151e-06 0.0126293 -0.000164679 -0.000164679 1177.13 180 1 
0.000197958 0.000301314 1.26403e-07 0.0152171 0.000204531 0.000204531 1207.42 181 1 
0.000213556 0.000290044 1.44272e-06 0.0144715 -0.000350943 -0.000350943 1182.31 182 1 
0.000247793 0.000306576 9.03378e-06 0.0153732 -0.00030951 -0.00030951 1175.46 183 1 
0.00026613 0.000299282 9.00683e-05 0.013997 -0.000579415 -0.000579415 1172.41 184 1 
0.000291496 0.000299937 1.04609e-05 0.0144329 -0.000810323 -0.000810323 1151.37 185 1 
0.000298699 0.000298541 8.19942e-05 0.0137937 0.00114172 0.00114172 1142.29 186 1 
0.000327423 0.000295363 8.40241e-05 0.0138183 0.000679867 0.000679867 1175.35 187 1 
9.02498e-07 0.000296821 7.95055e-05 0.0146362 0.000532824 0.000532824 1168.35 188 1 
2.79431e-05 0.000300666 9.38467e-06 0.0153676 0.000232989 0.000232989 1165.88 189 1 
4.84917e-05 0.000295989 8.61227e-05 0.0148459 -0.000615045 -0.000615045 1178.32 190 1 
7.95949e-05 0.000302262 3.63266e-06 0.0137898 -6.63286e-05 -6.63286e-05 1196.51 191 1 
9.69779e-05 0.000306775 8.82563e-05 0.0159005 -0.000212393 -0.000212393 1176.4 192 1 
0.000126769 0.000302091 5.32019e-06 0.0155426 -0.00135098 -0.00135098 1172.08 193 1 
0.000145001 0.000296856 8.8221e-05 0.0141745 -0.00102746 -0.00102746 1163.85 194 1 
0.00017561 0.000309092 8.70498e-05 0.0136355 0.000974866 0.000974866 1184.63 195 1 
0.000204182 0.000322327 9.77611e-07 0.0158737 -0.00169313 -0.00169313 1189 196 1 
0.000235652 0.000324613 1.14659e-05 0.0160978 4.54327e-05 4.54327e-05 1187.49 197 1 
0.000257625 0.000326496 8.71374e-05 0.0165078 0.000730285 0.000730285 1168.43 198 1 
0.00027196 0.000322677 9.00056e-05 0.0159018 0.000201138 0.000201138 1137.95 199 1 
0.000306167 0.000321611 6.68475e-06 0.0153722 -0.000738673 -0.000738673 1137.77 200 1 
0.000326108 0.000328954 4.46138e-07 0.0173002 0.000373443 0.000373443 1184.24 201 1 
-6.83824e-06 0.000328784 7.78979e-07 0.0157286 0.00100027 0.00100027 1136.5 202 1 
1.59406e-05 0.000327897 8.97514e-05 0.0165199 5.477e-06 5.477e-06 1134.38 203 1 
4.16142e-05 0.000325711 9.40421e-06 0.016153 0.000514965 0.000514965 1166.03 204 1 
6.22121e-05 0.00032907 2.15208e-06 0.0164279 -0.000264926 -0.000264926 1138.11 205 1 
8.59578e-05 0.000320257 7.82301e-06 0.0165574 0.000146519 0.000146519 1148.9 206 1 
0.000116199 0.000326471 1.23848e-06 0.0165151 -0.000785119 -0.000785119 1142.28 207 1 
0.000136346 0.000330456 1.09882e-05 0.0165293 0.000357773 0.000357773 1155.15 208 1 
0.000164832 0.000324236 8.81918e-05 0.015391 0.000637249 0.000637249 1180.1 209 1 
0.000184389 0.000325212 3.31322e-06 0.0156004 -9.55786e-05 -9.55786e-05 1190.07 210 1 
0.000223912 0.000353297 8.83017e-06 0.0166901 -0.00100465 -0.00100465 1184.81 211 1 
0.000243874 0.000341809 1.52185e-06 0.0173643 0.000271499 0.000271499 1187.37 212 1 
0.000271351 0.000358579 4.56215e-06 0.0185133 -0.000109597 -0.000109597 1134.72 213 1 
0.000296064 0.000349973 4.80291e-07 0.0173005 0.000708988 0.000708988 1167.77 214 1 
0.000317138 0.000346116 8.98131e-05 0.0170989 0.000244703 0.000244703 1199.84 215 1 
-1.86015e-05 0.000344332 8.79739e-05 0.0167925 0.000927993 0.000927993 1165.15 216 1 
5.32001e-06 0.00035349 6.55126e-06 0.017674 0.001023 0.001023 1139.09 217 1 
3.55944e-05 0.000350222 1.20687e-06 0.0178562 0.00071368 0.00071368 1142.5 218 1 
6.25192e-05 0.000351729 4.09218e-06 0.0180357 0.000367268 0.000367268 1137.64 219 1 
6.9973e-05 0.000349117 2.76154e-06 0.016635 -0.000690379 -0.000690379 1132.13 220 1 
0.000102093 0.000343362 5.2837e-06 0.0165911 0.000735324 0.000735324 1113.4 221 1 
0.000138895 0.000349506 8.96485e-05 0.0179225 0.000754164 0.000754164 1174.74 222 1 
0.000153935 0.000352956 3.54628e-06 0.0171998 -0.000701066 -0.000701066 1180.94 223 1 
0.000172616 0.000352654 7.62626e-06 0.0177586 0.00141537 0.00141537 1176.23 224 1 
0.000198889 0.000343122 1.28821e-07 0.0174231 -0.000182279 -0.000182279 1172.26 225 1 
0.000237855 0.000369133 1.5191e-06 0.0180608 0.00136826 0.00136826 1194.92 226 1 
0.000265882 0.000384293 9.65543e-06 0.0191825 -0.000141523 -0.000141523 1140.79 227 1 
0.000291728 0.000376447 8.03843e-06 0.0186991 -0.000741253 -0.000741253 1165.26 228 1 
0.000312928 0.000368714 8.75505e-05 0.0185884 -0.000457614 -0.000457614 1193.64 229 1 
-2.19138e-05 0.000373699 1.1836e-05 0.0187317 -0.000636146 -0.000636146 1133.36 230 1 
1.49666e-07 0.000377104 8.71754e-05 0.0194698 -2.60202e-05 -2.60202e-05 1130.41 231 1 
1.55092e-05 0.000374413 1.09509e-06 0.0173595 0.000226584 0.000226584 1140.01 232 1 
4.15993e-05 0.000372981 7.617e-06 0.0185477 -0.000698394 -0.000698394 1155.7 233 1 
7.81949e-05 0.000378491 2.23465e-06 0.0190832 0.00129109 0.00129109 1176.12 234 1 
8.98265e-05 0.000377402 7.45974e-06 0.0166253 -0.000205743 -0.000205743 1175.54 235 1 
0.000121885 0.000375181 8.96933e-05 0.0180648 -0.000194603 -0.000194603 1154.95 236 1 
0.000142227 0.000377926 2.1575e-06 0.0194264 -0.00105639 -0.00105639 1161.33 237 1 
0.0001697 0.000378894 8.34666e-05 0.0195213 0.000530529 0.000530529 1152.74 238 1 
0.000191366 0.000367812 9.18365e-06 0.0185507 0.000797314 0.000797314 1151.96 239 1 
0.000220659 0.000374544 4.15477e-06 0.0192812 0.000180229 0.000180229 1191.12 240 1 
0.000254968 0.000406303 8.70983e-05 0.0202024 0.00112558 0.00112558 1164.98 241 1 
0.000275418 0.000397639 8.69049e-05 0.0197267 -0.000616069 -0.000616069 1141.39 242 1 
0.000305877 0.000393899 4.27744e-06 0.020155 0.00033677 0.00033677 1181.21 243 1 
-2.48617e-05 0.000402462 8.97853e-05 0.0213324 -0.000351213 -0.000351213 1158.21 244 1 
-1.377e-05 0.000406465 8.78189e-05 0.0197876 9.28186e-05 9.28186e-05 1150.47 245 1 
1.30155e-05 0.0004045 3.9854e-06 0.0203582 0.000915922 0.000915922 1171.79 246 1 
3.96497e-05 0.000398192 2.22674e-06 0.019043 0.000435666 0.000435666 1165.17 247 1 
6.51688e-05 0.000400572 2.45266e-07 0.0215802 -0.000971865 -0.000971865 1162.65 248 1 
8.4518e-05 0.000398106 9.48495e-06 0.0195202 -0.000179047 -0.000179047 1168.48 249 1 
0.000115874 0.000401452 8.70797e-05 0.0187577 -0.000302484 -0.000302484 1155.2 250 1 
0.000127464 0.000394173 3.57279e-06 0.019448 -9.06576e-05 -9.06576e-05 1165.43 251 1 
0.000164769 0.000402197 3.30126e-06 0.0203308 -0.00013372 -0.00013372 1177.48 252 1 
0.000191467 0.000401974 9.07293e-06 0.0207498 -0.000631902 -0.000631902 1157.78 253 1 
0.000215563 0.000407841 6.73035e-06 0.021292 0.000443681 0.000443681 1177.08 254 1 
0.000230594 0.000406483 6.59781e-06 0.0196196 0.000978234 0.000978234 1183.84 255 1 
0.000269517 0.000424446 1.06512e-05 0.02238 -0.000817861 -0.000817861 1161.51 256 1 
0.000302383 0.000416043 7.88841e-06 0.0207203 -0.00059767 -0.00059767 1179.5 257 1 
0.000311616 0.000418172 5.38109e-06 0.0197258 -0.000535624 -0.000535624 1189.55 258 1 
-1.56007e-05 0.000431201 2.75025e-06 0.0221644 -2.26997e-05 -2.26997e-05 1129.51 259 1 
9.05378e-06 0.000424816 8.96763e-05 0.0209629 -0.00126292 -0.00126292 1159.53 260 1 
3.35459e-05 0.000433904 2.87443e-06 0.0212024 -0.000998447 -0.000998447 1168.19 261 1 
5.71893e-05 0.000421679 3.60227e-06 0.0217817 -0.00140296 -0.00140296 1152.06 262 1 
8.47e-05 0.000422046 1.13777e-06 0.0216431 -0.000158461 -0.000158461 1177 263 1 
0.000102912 0.000433971 2.22798e-06 0.0219947 0.000813613 0.000813613 1192.6 264 1 
0.000124593 0.000431594 8.68638e-05 0.0219539 -6.82101e-05 -6.82101e-05 1175.45 265 1 
0.000145022 0.000422433 8.6939e-05 0.0214239 -0.00053895 -0.00053895 1190.44 266 1 
0.000169842 0.000421827 6.96134e-07 0.0208729 0.00129328 0.00129328 1160.31 267 1 
0.000196956 0.000427491 4.5896e-06 0.022312 3.11283e-05 3.11283e-05 1149.48 268 1 
0.00022205 0.000428586 2.34896e-06 0.020211 0.00108165 0.00108165 1155.09 269 1 
0.000252371 0.000426327 3.61668e-08 0.0216102 0.000774164 0.000774164 1177.85 270 1 
0.000283834 0.000449122 5.37437e-06 0.0225906 -0.000121229 -0.000121229 1143.78 271 1 
0.000307391 0.000448853 8.89499e-05 0.0212735 0.00195041 0.00195041 1178.95 272 1 
-3.34972e-05 0.000456859 4.42429e-06 0.0244788 -0.000217188 -0.000217188 1179.55 273 1 
-9.26073e-06 0.000443155 8.97705e-05 0.0217928 -0.000181082 -0.000181082 1129.34 274 1 
2.33311e-05 0.000454603 1.40647e-05 0.0227979 -0.000182786 -0.000182786 1152.92 275 1 
4.32271e-05 0.000448028 1.14072e-06 0.0234088 -0.00102692 -0.00102692 1172.32 276 1 
7.72415e-05 0.00045012 3.52766e-06 0.0225081 -0.000823991 -0.000823991 1193.2 277 1 
9.36934e-05 0.00045625 8.51734e-05 0.0226157 0.000384444 0.000384444 1197.68 278 1 
0.000124537 0.000452354 8.15799e-05 0.0221757 -0.00113074 -0.00113074 1157.25 279 1 
0.000139169 0.000440272 9.4692e-06 0.0221092 -0.000409497 -0.000409497 1156.34 280 1 
0.000179514 0.000453829 8.64142e-05 0.0212319 0.000454896 0.000454896 1156.54 281 1 
0.000184541 0.000447717 1.44831e-06 0.0221823 -7.05233e-05 -7.05233e-05 1157.83 282 1 
0.00020842 0.00044268 8.75846e-05 0.0215976 -0.000881296 -0.000881296 1142.68 283 1 
0.000238933 0.000449063 9.19942e-06 0.0222056 -0.00110206 -0.00110206 1148.33 284 1 
0.000261844 0.000441052 8.91813e-05 0.0235333 -0.000384238 -0.000384238 1165.58 285 1 
3.66176e-05 8.49789e-06 2.99217e-05 -0.00012144 0.000309778 0.000309778 1251.07 286 1 
0.000135425 6.06321e-07 3.12826e-05 0.000598097 0.000984294 0.000984294 1254.46 287 1 
0.000213778 0.00088944 2.84614e-05 0.0439987 0.000444434 0.000444434 1212.38 288 1 
0.000237533 0.000894913 2.84779e-05 0.0439466 0.000687587 0.000687587 1212.73 289 1 
0.000139183 1.37802e-05 3.24923e-05 -0.000448488 -0.000467941 -0.000467941 1244.29 290 1 
0.000178917 6.96337e-06 2.7958e-05 0.000412371 0.000962628 0.000962628 1234.53 291 1 
0.000185268 1.22289e-05 2.55641e-05 0.00176511 0.00103204 0.00103204 1229.72 292 1 
-2.45823e-05 0.000889633 2.80245e-05 0.04491 -0.000268402 -0.000268402 1200.86 293 1 
-1.2533e-05 0.000901466 3.18689e-05 0.0456254 -0.000599466 -0.000599466 1169 294 1 
2.74182e-05 0.000893818 2.57647e-05 0.0449374 -0.000451475 -0.000451475 1208.97 295 1 
0.000283769 1.21818e-05 2.88645e-05 0.000375511 -0.00179954 -0.00179954 1160.24 296 1 
0.000326044 1.30478e-05 2.90084e-05 -1.00222e-05 0.000317222 0.000317222 1169.16 297 1 
9.14358e-05 0.000892075 2.61813e-05 0.0447855 -6.93567e-06 -6.93567e-06 1220.26 298 1 
0.000122612 0.000888547 2.79848e-05 0.0437922 0.000511108 0.000511108 1236.55 299 1 
0.000147117 0.000888415 2.6044e-05 0.044853 -0.000889768 -0.000889768 1237.97 300 1 
3.90884e-05 3.36363e-05 2.52359e-05 0.00239014 -0.000787265 -0.000787265 1223.42 301 1 
5.62314e-05 3.51296e-05 3.04597e-05 0.00145027 0.000651627 0.000651627 1228 302 1 
8.20424e-05 3.62629e-05 2.97204e-05 0.000758048 -0.000304579 -0.000304579 1202.39 303 1 
0.000112801 3.6278e-05 2.56219e-05 0.00206515 0.00103239 0.00103239 1197.91 304 1 
0.000139676 3.865e-05 2.2441e-05 0.00263052 -0.000395047 -0.000395047 1242.11 305 1 
0.000163159 3.53999e-05 2.39063e-05 0.00278141 -0.0016303 -0.0016303 1244.75 306 1 
0.00018376 4.38598e-05 3.17708e-05 0.0010837 0.000128614 0.000128614 1219.38 307 1 
0.000205815 3.96296e-05 2.21601e-05 0.00211407 -0.000117756 -0.000117756 1207.82 308 1 
0.000230238 3.39486e-05 2.59907e-05 0.00130981 -0.000254947 -0.000254947 1211.76 309 1 
0.00024919 3.21499e-05 2.50499e-05 0.00186622 0.000150447 0.000150447 1194.75 310 1 
0.00027051 3.75334e-05 3.30771e-05 0.00150106 0.000612052 0.000612052 1209.85 311 1 
0.0002983 4.01865e-05 3.60375e-05 0.00177231 0.000306784 0.000306784 1216.18 312 1 
0.000319803 4.36506e-05 2.69662e-05 0.00273792 0.000435748 0.000435748 1197.99 313 1 
2.46565e-06 3.5417e-05 2.79842e-05 0.00217413 0.000128603 0.000128603 1220.04 314 1 
1.13899e-05 3.82313e-05 2.80844e-05 0.0010363 0.000234254 0.000234254 1222.43 315 1 
4.0962e-05 4.80496e-05 3.63171e-05 0.00365453 -0.00033937 -0.00033937 1209.28 316 1 
6.50837e-05 5.51941e-05 3.32023e-05 0.00266007 -0.000899293 -0.000899293 1220.61 317 1 
8.63239e-05 5.79069e-05 3.04677e-05 0.00312993 0.000527339 0.000527339 1215.61 318 1 
0.0001193 6.24247e-05 2.84549e-05 0.00226966 -0.000136882 -0.000136882 1224.07 319 1 
0.00013669 6.25907e-05 2.36421e-05 0.0033029 -3.88615e-05 -3.88615e-05 1240.68 320 1 
0.000160307 5.22116e-05 3.22556e-05 0.00255098 -0.000617583 -0.000617583 1244.6 321 1 
0.000194125 6.01469e-05 2.63207e-05 0.00417836 -0.000507816 -0.000507816 1218.55 322 1 
0.000215786 6.29721e-05 2.98239e-05 0.00260728 0.000327768 0.000327768 1228.88 323 1 
0.000242034 5.69829e-05 2.46853e-05 0.00323289 -0.000152844 -0.000152844 1227.41 324 1 
0.000270791 5.19666e-05 2.38624e-05 0.00382427 0.000419629 0.000419629 1215.3 325 1 
0.000290888 6.19268e-05 2.39354e-05 0.00240253 0.000423194 0.000423194 1223.38 326 1 
0.00030385 5.96309e-05 2.81917e-05 0.00197143 0.00101823 0.00101823 1235.97 327 1 
0.000332953 5.83456e-05 2.99503e-05 0.00213833 -0.000567341 -0.000567341 1210.74 328 1 
0.000352461 6.24957e-05 2.27175e-05 0.00304387 -0.00112388 -0.00112388 1201.39 329 1 
1.93991e-05 5.43125e-05 2.49214e-05 0.00259506 2.78995e-05 2.78995e-05 1191.07 330 1 
6.33421e-05 7.80842e-05 3.20479e-05 0.00391704 0.000263459 0.000263459 1214.81 331 1 
8.60051e-05 9.10233e-05 2.35675e-05 0.00418796 0.000228204 0.000228204 1225.71 332 1 
0.000117503 8.10262e-05 2.46997e-05 0.00443934 0.000358092 0.000358092 1217.09 333 1 
0.000124408 7.86936e-05 2.8902e-05 0.00445115 -0.00126027 -0.00126027 1216.55 334 1 
0.000157956 8.25854e-05 2.76237e-05 0.0040895 -0.000488912 -0.000488912 1206.31 335 1 
0.000179199 8.90076e-05 3.12104e-05 0.0040193 -0.000465337 -0.000465337 1213.8 336 1 
0.000206472 7.74671e-05 2.07169e-05 0.00338641 0.000120186 0.000120186 1228.23 337 1 
0.000226426 8.17232e-05 2.58505e-05 0.00383548 4.04999e-05 4.04999e-05 1229.84 338 1 
0.000249593 8.11612e-05 3.31854e-05 0.00357096 0.0016499 0.0016499 1194.51 339 1 
0.000278808 8.90813e-05 2.96111e-05 0.0046122 0.000170777 0.000170777 1174.21 340 1 
0.000297626 8.95329e-05 2.40626e-05 0.00387552 0.00109311 0.00109311 1205.46 341 1 
0.000323338 8.39023e-05 2.28671e-05 0.00362625 -0.00123228 -0.00123228 1196.72 342 1 
0.000343808 8.86105e-05 2.69508e-05 0.00576524 -0.000396077 -0.000396077 1204.11 343 1 
3.65484e-06 8.50855e-05 2.85975e-05 0.0051771 -0.00170301 -0.00170301 1186.6 344 1 
3.54679e-05 8.09349e-05 2.44277e-05 0.00444395 0.000292519 0.000292519 1179.74 345 1 
6.71773e-05 9.76559e-05 3.72063e-05 0.00525493 -0.000115227 -0.000115227 1224.45 346 1 
9.33932e-05 0.000108532 2.3487e-05 0.00496153 0.000916544 0.000916544 1237.51 347 1 
0.000118806 0.000102354 2.56839e-05 0.00558201 -0.000362972 -0.000362972 1217.66 348 1 
0.00014344 0.000106146 2.85947e-05 0.00464265 -0.00158867 -0.00158867 1216.49 349 1 