ITEM: TIMESTEP
0
ITEM: NUMBER OF ATOMS
2220
ITEM: BOX BOUNDS xy xz yz pp pp pp
0 0.0003606 0
0 0.0009015 0
0 9.015e-05 0
ITEM: ATOMS x y z vx vy vy c_rho_peratom id type 
0 0 0 0 0 0 2214.71 1 1 
2.5e-05 0 0 0 0 0 1899.8 2 1 
5e-05 0 0 0 0 0 1733.19 3 1 
7.5e-05 0 0 0 0 0 1731.99 4 1 
0.0001 0 0 0 0 0 1731.99 5 1 
0.000125 0 0 0 0 0 1731.99 6 1 
0.00015 0 0 0 0 0 1731.99 7 1 
0.000175 0 0 0 0 0 1731.99 8 1 
0.0002 0 0 0 0 0 1731.99 9 1 
0.000225 0 0 0 0 0 1731.99 10 1 
0.00025 0 0 0 0 0 1731.99 11 1 
0.000275 0 0 0 0 0 1731.99 12 1 
0.0003 0 0 0 0 0 1733.19 13 1 
0.000325 0 0 0 0 0 1899.8 14 1 
0.00035 0 0 0 0 0 2214.71 15 1 
0 2.5e-05 0 0 0 0 1854.02 16 1 
2.5e-05 2.5e-05 0 0 0 0 1583.51 17 1 
5e-05 2.5e-05 0 0 0 0 1445.96 18 1 
7.5e-05 2.5e-05 0 0 0 0 1445.34 19 1 
0.0001 2.5e-05 0 0 0 0 1445.34 20 1 
0.000125 2.5e-05 0 0 0 0 1445.34 21 1 
0.00015 2.5e-05 0 0 0 0 1445.34 22 1 
0.000175 2.5e-05 0 0 0 0 1445.34 23 1 
0.0002 2.5e-05 0 0 0 0 1445.34 24 1 
0.000225 2.5e-05 0 0 0 0 1445.34 25 1 
0.00025 2.5e-05 0 0 0 0 1445.34 26 1 
0.000275 2.5e-05 0 0 0 0 1445.34 27 1 
0.0003 2.5e-05 0 0 0 0 1445.96 28 1 
0.000325 2.5e-05 0 0 0 0 1583.51 29 1 
0.00035 2.5e-05 0 0 0 0 1854.02 30 1 
0 5e-05 0 0 0 0 1540.83 31 1 
2.5e-05 5e-05 0 0 0 0 1314.54 32 1 
5e-05 5e-05 0 0 0 0 1201.58 33 1 
7.5e-05 5e-05 0 0 0 0 1200.96 34 1 
0.0001 5e-05 0 0 0 0 1200.96 35 1 
0.000125 5e-05 0 0 0 0 1200.96 36 1 
0.00015 5e-05 0 0 0 0 1200.96 37 1 
0.000175 5e-05 0 0 0 0 1200.96 38 1 
0.0002 5e-05 0 0 0 0 1200.96 39 1 
0.000225 5e-05 0 0 0 0 1200.96 40 1 
0.00025 5e-05 0 0 0 0 1200.96 41 1 
0.000275 5e-05 0 0 0 0 1200.96 42 1 
0.0003 5e-05 0 0 0 0 1201.58 43 1 
0.000325 5e-05 0 0 0 0 1314.54 44 1 
0.00035 5e-05 0 0 0 0 1540.83 45 1 
0 7.5e-05 0 0 0 0 1522.09 46 1 
2.5e-05 7.5e-05 0 0 0 0 1300.89 47 1 
5e-05 7.5e-05 0 0 0 0 1188.12 48 1 
7.5e-05 7.5e-05 0 0 0 0 1187.5 49 1 
0.0001 7.5e-05 0 0 0 0 1187.5 50 1 
0.000125 7.5e-05 0 0 0 0 1187.5 51 1 
0.00015 7.5e-05 0 0 0 0 1187.5 52 1 
0.000175 7.5e-05 0 0 0 0 1187.5 53 1 
0.0002 7.5e-05 0 0 0 0 1187.5 54 1 
0.000225 7.5e-05 0 0 0 0 1187.5 55 1 
0.00025 7.5e-05 0 0 0 0 1187.5 56 1 
0.000275 7.5e-05 0 0 0 0 1187.5 57 1 
0.0003 7.5e-05 0 0 0 0 1188.12 58 1 
0.000325 7.5e-05 0 0 0 0 1300.89 59 1 
0.00035 7.5e-05 0 0 0 0 1522.09 60 1 
0 0.0001 0 0 0 0 1522.09 61 1 
2.5e-05 0.0001 0 0 0 0 1300.89 62 1 
5e-05 0.0001 0 0 0 0 1188.12 63 1 
7.5e-05 0.0001 0 0 0 0 1187.5 64 1 
0.0001 0.0001 0 0 0 0 1187.5 65 1 
0.000125 0.0001 0 0 0 0 1187.5 66 1 
0.00015 0.0001 0 0 0 0 1187.5 67 1 
0.000175 0.0001 0 0 0 0 1187.5 68 1 
0.0002 0.0001 0 0 0 0 1187.5 69 1 
0.000225 0.0001 0 0 0 0 1187.5 70 1 
0.00025 0.0001 0 0 0 0 1187.5 71 1 
0.000275 0.0001 0 0 0 0 1187.5 72 1 
0.0003 0.0001 0 0 0 0 1188.12 73 1 
0.000325 0.0001 0 0 0 0 1300.89 74 1 
0.00035 0.0001 0 0 0 0 1522.09 75 1 
0 0.000125 0 0 0 0 1522.09 76 1 
2.5e-05 0.000125 0 0 0 0 1300.89 77 1 
5e-05 0.000125 0 0 0 0 1188.12 78 1 
7.5e-05 0.000125 0 0 0 0 1187.5 79 1 
0.0001 0.000125 0 0 0 0 1187.5 80 1 
0.000125 0.000125 0 0 0 0 1187.5 81 1 
0.00015 0.000125 0 0 0 0 1187.5 82 1 
0.000175 0.000125 0 0 0 0 1187.5 83 1 
0.0002 0.000125 0 0 0 0 1187.5 84 1 
0.000225 0.000125 0 0 0 0 1187.5 85 1 
0.00025 0.000125 0 0 0 0 1187.5 86 1 
0.000275 0.000125 0 0 0 0 1187.5 87 1 
0.0003 0.000125 0 0 0 0 1188.12 88 1 
0.000325 0.000125 0 0 0 0 1300.89 89 1 
0.00035 0.000125 0 0 0 0 1522.09 90 1 
0 0.00015 0 0 0 0 1522.09 91 1 
2.5e-05 0.00015 0 0 0 0 1300.89 92 1 
5e-05 0.00015 0 0 0 0 1188.12 93 1 
7.5e-05 0.00015 0 0 0 0 1187.5 94 1 
0.0001 0.00015 0 0 0 0 1187.5 95 1 
0.000125 0.00015 0 0 0 0 1187.5 96 1 
0.00015 0.00015 0 0 0 0 1187.5 97 1 
0.000175 0.00015 0 0 0 0 1187.5 98 1 
0.0002 0.00015 0 0 0 0 1187.5 99 1 
0.000225 0.00015 0 0 0 0 1187.5 100 1 
0.00025 0.00015 0 0 0 0 1187.5 101 1 
0.000275 0.00015 0 0 0 0 1187.5 102 1 
0.0003 0.00015 0 0 0 0 1188.12 103 1 
0.000325 0.00015 0 0 0 0 1300.89 104 1 
0.00035 0.00015 0 0 0 0 1522.09 105 1 
0 0.000175 0 0 0 0 1522.09 106 1 
2.5e-05 0.000175 0 0 0 0 1300.89 107 1 
5e-05 0.000175 0 0 0 0 1188.12 108 1 
7.5e-05 0.000175 0 0 0 0 1187.5 109 1 
0.0001 0.000175 0 0 0 0 1187.5 110 1 
0.000125 0.000175 0 0 0 0 1187.5 111 1 
0.00015 0.000175 0 0 0 0 1187.5 112 1 
0.000175 0.000175 0 0 0 0 1187.5 113 1 
0.0002 0.000175 0 0 0 0 1187.5 114 1 
0.000225 0.000175 0 0 0 0 1187.5 115 1 
0.00025 0.000175 0 0 0 0 1187.5 116 1 
0.000275 0.000175 0 0 0 0 1187.5 117 1 
0.0003 0.000175 0 0 0 0 1188.12 118 1 
0.000325 0.000175 0 0 0 0 1300.89 119 1 
0.00035 0.000175 0 0 0 0 1522.09 120 1 
0 0.0002 0 0 0 0 1522.09 121 1 
2.5e-05 0.0002 0 0 0 0 1300.89 122 1 
5e-05 0.0002 0 0 0 0 1188.12 123 1 
7.5e-05 0.0002 0 0 0 0 1187.5 124 1 
0.0001 0.0002 0 0 0 0 1187.5 125 1 
0.000125 0.0002 0 0 0 0 1187.5 126 1 
0.00015 0.0002 0 0 0 0 1187.5 127 1 
0.000175 0.0002 0 0 0 0 1187.5 128 1 
0.0002 0.0002 0 0 0 0 1187.5 129 1 
0.000225 0.0002 0 0 0 0 1187.5 130 1 
0.00025 0.0002 0 0 0 0 1187.5 131 1 
0.000275 0.0002 0 0 0 0 1187.5 132 1 
0.0003 0.0002 0 0 0 0 1188.12 133 1 
0.000325 0.0002 0 0 0 0 1300.89 134 1 
0.00035 0.0002 0 0 0 0 1522.09 135 1 
0 0.000225 0 0 0 0 1522.09 136 1 
2.5e-05 0.000225 0 0 0 0 1300.89 137 1 
5e-05 0.000225 0 0 0 0 1188.12 138 1 
7.5e-05 0.000225 0 0 0 0 1187.5 139 1 
0.0001 0.000225 0 0 0 0 1187.5 140 1 
0.000125 0.000225 0 0 0 0 1187.5 141 1 
0.00015 0.000225 0 0 0 0 1187.5 142 1 
0.000175 0.000225 0 0 0 0 1187.5 143 1 
0.0002 0.000225 0 0 0 0 1187.5 144 1 
0.000225 0.000225 0 0 0 0 1187.5 145 1 
0.00025 0.000225 0 0 0 0 1187.5 146 1 
0.000275 0.000225 0 0 0 0 1187.5 147 1 
0.0003 0.000225 0 0 0 0 1188.12 148 1 
0.000325 0.000225 0 0 0 0 1300.89 149 1 
0.00035 0.000225 0 0 0 0 1522.09 150 1 
0 0.00025 0 0 0 0 1522.09 151 1 
2.5e-05 0.00025 0 0 0 0 1300.89 152 1 
5e-05 0.00025 0 0 0 0 1188.12 153 1 
7.5e-05 0.00025 0 0 0 0 1187.5 154 1 
0.0001 0.00025 0 0 0 0 1187.5 155 1 
0.000125 0.00025 0 0 0 0 1187.5 156 1 
0.00015 0.00025 0 0 0 0 1187.5 157 1 
0.000175 0.00025 0 0 0 0 1187.5 158 1 
0.0002 0.00025 0 0 0 0 1187.5 159 1 
0.000225 0.00025 0 0 0 0 1187.5 160 1 
0.00025 0.00025 0 0 0 0 1187.5 161 1 
0.000275 0.00025 0 0 0 0 1187.5 162 1 
0.0003 0.00025 0 0 0 0 1188.12 163 1 
0.000325 0.00025 0 0 0 0 1300.89 164 1 
0.00035 0.00025 0 0 0 0 1522.09 165 1 
0 0.000275 0 0 0 0 1522.09 166 1 
2.5e-05 0.000275 0 0 0 0 1300.89 167 1 
5e-05 0.000275 0 0 0 0 1188.12 168 1 
7.5e-05 0.000275 0 0 0 0 1187.5 169 1 
0.0001 0.000275 0 0 0 0 1187.5 170 1 
0.000125 0.000275 0 0 0 0 1187.5 171 1 
0.00015 0.000275 0 0 0 0 1187.5 172 1 
0.000175 0.000275 0 0 0 0 1187.5 173 1 
0.0002 0.000275 0 0 0 0 1187.5 174 1 
0.000225 0.000275 0 0 0 0 1187.5 175 1 
0.00025 0.000275 0 0 0 0 1187.5 176 1 
0.000275 0.000275 0 0 0 0 1187.5 177 1 
0.0003 0.000275 0 0 0 0 1188.12 178 1 
0.000325 0.000275 0 0 0 0 1300.89 179 1 
0.00035 0.000275 0 0 0 0 1522.09 180 1 
0 0.0003 0 0 0 0 1522.09 181 1 
2.5e-05 0.0003 0 0 0 0 1300.89 182 1 
5e-05 0.0003 0 0 0 0 1188.12 183 1 
7.5e-05 0.0003 0 0 0 0 1187.5 184 1 
0.0001 0.0003 0 0 0 0 1187.5 185 1 
0.000125 0.0003 0 0 0 0 1187.5 186 1 
0.00015 0.0003 0 0 0 0 1187.5 187 1 
0.000175 0.0003 0 0 0 0 1187.5 188 1 
0.0002 0.0003 0 0 0 0 1187.5 189 1 
0.000225 0.0003 0 0 0 0 1187.5 190 1 
0.00025 0.0003 0 0 0 0 1187.5 191 1 
0.000275 0.0003 0 0 0 0 1187.5 192 1 
0.0003 0.0003 0 0 0 0 1188.12 193 1 
0.000325 0.0003 0 0 0 0 1300.89 194 1 
0.00035 0.0003 0 0 0 0 1522.09 195 1 
0 0.000325 0 0 0 0 1522.09 196 1 
2.5e-05 0.000325 0 0 0 0 1300.89 197 1 
5e-05 0.000325 0 0 0 0 1188.12 198 1 
7.5e-05 0.000325 0 0 0 0 1187.5 199 1 
0.0001 0.000325 0 0 0 0 1187.5 200 1 
0.000125 0.000325 0 0 0 0 1187.5 201 1 
0.00015 0.000325 0 0 0 0 1187.5 202 1 
0.000175 0.000325 0 0 0 0 1187.5 203 1 
0.0002 0.000325 0 0 0 0 1187.5 204 1 
0.000225 0.000325 0 0 0 0 1187.5 205 1 
0.00025 0.000325 0 0 0 0 1187.5 206 1 
0.000275 0.000325 0 0 0 0 1187.5 207 1 
0.0003 0.000325 0 0 0 0 1188.12 208 1 
0.000325 0.000325 0 0 0 0 1300.89 209 1 
0.00035 0.000325 0 0 0 0 1522.09 210 1 
0 0.00035 0 0 0 0 1522.09 211 1 
2.5e-05 0.00035 0 0 0 0 1300.89 212 1 
5e-05 0.00035 0 0 0 0 1188.12 213 1 
7.5e-05 0.00035 0 0 0 0 1187.5 214 1 
0.0001 0.00035 0 0 0 0 1187.5 215 1 
0.000125 0.00035 0 0 0 0 1187.5 216 1 
0.00015 0.00035 0 0 0 0 1187.5 217 1 
0.000175 0.00035 0 0 0 0 1187.5 218 1 
0.0002 0.00035 0 0 0 0 1187.5 219 1 
0.000225 0.00035 0 0 0 0 1187.5 220 1 
0.00025 0.00035 0 0 0 0 1187.5 221 1 
0.000275 0.00035 0 0 0 0 1187.5 222 1 
0.0003 0.00035 0 0 0 0 1188.12 223 1 
0.000325 0.00035 0 0 0 0 1300.89 224 1 
0.00035 0.00035 0 0 0 0 1522.09 225 1 
0 0.000375 0 0 0 0 1522.09 226 1 
2.5e-05 0.000375 0 0 0 0 1300.89 227 1 
5e-05 0.000375 0 0 0 0 1188.12 228 1 
7.5e-05 0.000375 0 0 0 0 1187.5 229 1 
0.0001 0.000375 0 0 0 0 1187.5 230 1 
0.000125 0.000375 0 0 0 0 1187.5 231 1 
0.00015 0.000375 0 0 0 0 1187.5 232 1 
0.000175 0.000375 0 0 0 0 1187.5 233 1 
0.0002 0.000375 0 0 0 0 1187.5 234 1 
0.000225 0.000375 0 0 0 0 1187.5 235 1 
0.00025 0.000375 0 0 0 0 1187.5 236 1 
0.000275 0.000375 0 0 0 0 1187.5 237 1 
0.0003 0.000375 0 0 0 0 1188.12 238 1 
0.000325 0.000375 0 0 0 0 1300.89 239 1 
0.00035 0.000375 0 0 0 0 1522.09 240 1 
0 0.0004 0 0 0 0 1522.09 241 1 
2.5e-05 0.0004 0 0 0 0 1300.89 242 1 
5e-05 0.0004 0 0 0 0 1188.12 243 1 
7.5e-05 0.0004 0 0 0 0 1187.5 244 1 
0.0001 0.0004 0 0 0 0 1187.5 245 1 
0.000125 0.0004 0 0 0 0 1187.5 246 1 
0.00015 0.0004 0 0 0 0 1187.5 247 1 
0.000175 0.0004 0 0 0 0 1187.5 248 1 
0.0002 0.0004 0 0 0 0 1187.5 249 1 
0.000225 0.0004 0 0 0 0 1187.5 250 1 
0.00025 0.0004 0 0 0 0 1187.5 251 1 
0.000275 0.0004 0 0 0 0 1187.5 252 1 
0.0003 0.0004 0 0 0 0 1188.12 253 1 
0.000325 0.0004 0 0 0 0 1300.89 254 1 
0.00035 0.0004 0 0 0 0 1522.09 255 1 
0 0.000425 0 0 0 0 1522.09 256 1 
2.5e-05 0.000425 0 0 0 0 1300.89 257 1 
5e-05 0.000425 0 0 0 0 1188.12 258 1 
7.5e-05 0.000425 0 0 0 0 1187.5 259 1 
0.0001 0.000425 0 0 0 0 1187.5 260 1 
0.000125 0.000425 0 0 0 0 1187.5 261 1 
0.00015 0.000425 0 0 0 0 1187.5 262 1 
0.000175 0.000425 0 0 0 0 1187.5 263 1 
0.0002 0.000425 0 0 0 0 1187.5 264 1 
0.000225 0.000425 0 0 0 0 1187.5 265 1 
0.00025 0.000425 0 0 0 0 1187.5 266 1 
0.000275 0.000425 0 0 0 0 1187.5 267 1 
0.0003 0.000425 0 0 0 0 1188.12 268 1 
0.000325 0.000425 0 0 0 0 1300.89 269 1 
0.00035 0.000425 0 0 0 0 1522.09 270 1 
0 0.00045 0 0 0 0 1522.09 271 1 
2.5e-05 0.00045 0 0 0 0 1300.89 272 1 
5e-05 0.00045 0 0 0 0 1188.12 273 1 
7.5e-05 0.00045 0 0 0 0 1187.5 274 1 
0.0001 0.00045 0 0 0 0 1187.5 275 1 
0.000125 0.00045 0 0 0 0 1187.5 276 1 
0.00015 0.00045 0 0 0 0 1187.5 277 1 
0.000175 0.00045 0 0 0 0 1187.5 278 1 
0.0002 0.00045 0 0 0 0 1187.5 279 1 
0.000225 0.00045 0 0 0 0 1187.5 280 1 
0.00025 0.00045 0 0 0 0 1187.5 281 1 
0.000275 0.00045 0 0 0 0 1187.5 282 1 
0.0003 0.00045 0 0 0 0 1188.12 283 1 
0.000325 0.00045 0 0 0 0 1300.89 284 1 
0.00035 0.00045 0 0 0 0 1522.09 285 1 
0 0 2.5e-05 0 0 0 1970.74 286 1 
2.5e-05 0 2.5e-05 0 0 0 1685.52 287 1 
5e-05 0 2.5e-05 0 0 0 1538.88 288 1 
7.5e-05 0 2.5e-05 0 0 0 1538 289 1 
0.0001 0 2.5e-05 0 0 0 1538 290 1 
0.000125 0 2.5e-05 0 0 0 1538 291 1 
0.00015 0 2.5e-05 0 0 0 1538 292 1 
0.000175 0 2.5e-05 0 0 0 1538 293 1 
0.0002 0 2.5e-05 0 0 0 1538 294 1 
0.000225 0 2.5e-05 0 0 0 1538 295 1 
0.00025 0 2.5e-05 0 0 0 1538 296 1 
0.000275 0 2.5e-05 0 0 0 1538 297 1 
0.0003 0 2.5e-05 0 0 0 1538.88 298 1 
0.000325 0 2.5e-05 0 0 0 1685.52 299 1 
0.00035 0 2.5e-05 0 0 0 1970.74 300 1 
0 2.5e-05 2.5e-05 0 0 0 1644.07 301 1 
2.5e-05 2.5e-05 2.5e-05 0 0 0 1399.27 302 1 
5e-05 2.5e-05 2.5e-05 0 0 0 1279.24 303 1 
7.5e-05 2.5e-05 2.5e-05 0 0 0 1278.78 304 1 
0.0001 2.5e-05 2.5e-05 0 0 0 1278.78 305 1 
0.000125 2.5e-05 2.5e-05 0 0 0 1278.78 306 1 
0.00015 2.5e-05 2.5e-05 0 0 0 1278.78 307 1 
0.000175 2.5e-05 2.5e-05 0 0 0 1278.78 308 1 
0.0002 2.5e-05 2.5e-05 0 0 0 1278.78 309 1 
0.000225 2.5e-05 2.5e-05 0 0 0 1278.78 310 1 
0.00025 2.5e-05 2.5e-05 0 0 0 1278.78 311 1 
0.000275 2.5e-05 2.5e-05 0 0 0 1278.78 312 1 
0.0003 2.5e-05 2.5e-05 0 0 0 1279.24 313 1 
0.000325 2.5e-05 2.5e-05 0 0 0 1399.27 314 1 
0.00035 2.5e-05 2.5e-05 0 0 0 1644.07 315 1 
0 5e-05 2.5e-05 0 0 0 1365.48 316 1 
2.5e-05 5e-05 2.5e-05 0 0 0 1161.31 317 1 
5e-05 5e-05 2.5e-05 0 0 0 1062.42 318 1 
7.5e-05 5e-05 2.5e-05 0 0 0 1061.96 319 1 
0.0001 5e-05 2.5e-05 0 0 0 1061.96 320 1 
0.000125 5e-05 2.5e-05 0 0 0 1061.96 321 1 
0.00015 5e-05 2.5e-05 0 0 0 1061.96 322 1 
0.000175 5e-05 2.5e-05 0 0 0 1061.96 323 1 
0.0002 5e-05 2.5e-05 0 0 0 1061.96 324 1 
0.000225 5e-05 2.5e-05 0 0 0 1061.96 325 1 
0.00025 5e-05 2.5e-05 0 0 0 1061.96 326 1 
0.000275 5e-05 2.5e-05 0 0 0 1061.96 327 1 
0.0003 5e-05 2.5e-05 0 0 0 1062.42 328 1 
0.000325 5e-05 2.5e-05 0 0 0 1161.31 329 1 
0.00035 5e-05 2.5e-05 0 0 0 1365.48 330 1 
0 7.5e-05 2.5e-05 0 0 0 1350.57 331 1 
2.5e-05 7.5e-05 2.5e-05 0 0 0 1150.55 332 1 
5e-05 7.5e-05 2.5e-05 0 0 0 1051.82 333 1 
7.5e-05 7.5e-05 2.5e-05 0 0 0 1051.36 334 1 
0.0001 7.5e-05 2.5e-05 0 0 0 1051.36 335 1 
0.000125 7.5e-05 2.5e-05 0 0 0 1051.36 336 1 
0.00015 7.5e-05 2.5e-05 0 0 0 1051.36 337 1 
0.000175 7.5e-05 2.5e-05 0 0 0 1051.36 338 1 
0.0002 7.5e-05 2.5e-05 0 0 0 1051.36 339 1 
0.000225 7.5e-05 2.5e-05 0 0 0 1051.36 340 1 
0.00025 7.5e-05 2.5e-05 0 0 0 1051.36 341 1 
0.000275 7.5e-05 2.5e-05 0 0 0 1051.36 342 1 
0.0003 7.5e-05 2.5e-05 0 0 0 1051.82 343 1 
0.000325 7.5e-05 2.5e-05 0 0 0 1150.55 344 1 
0.00035 7.5e-05 2.5e-05 0 0 0 1350.57 345 1 
0 0.0001 2.5e-05 0 0 0 1350.57 346 1 
2.5e-05 0.0001 2.5e-05 0 0 0 1150.55 347 1 
5e-05 0.0001 2.5e-05 0 0 0 1051.82 348 1 
7.5e-05 0.0001 2.5e-05 0 0 0 1051.36 349 1 
0.0001 0.0001 2.5e-05 0 0 0 1051.36 350 1 
0.000125 0.0001 2.5e-05 0 0 0 1051.36 351 1 
0.00015 0.0001 2.5e-05 0 0 0 1051.36 352 1 
0.000175 0.0001 2.5e-05 0 0 0 1051.36 353 1 
0.0002 0.0001 2.5e-05 0 0 0 1051.36 354 1 
0.000225 0.0001 2.5e-05 0 0 0 1051.36 355 1 
0.00025 0.0001 2.5e-05 0 0 0 1051.36 356 1 
0.000275 0.0001 2.5e-05 0 0 0 1051.36 357 1 
0.0003 0.0001 2.5e-05 0 0 0 1051.82 358 1 
0.000325 0.0001 2.5e-05 0 0 0 1150.55 359 1 
0.00035 0.0001 2.5e-05 0 0 0 1350.57 360 1 
0 0.000125 2.5e-05 0 0 0 1350.57 361 1 
2.5e-05 0.000125 2.5e-05 0 0 0 1150.55 362 1 
5e-05 0.000125 2.5e-05 0 0 0 1051.82 363 1 
7.5e-05 0.000125 2.5e-05 0 0 0 1051.36 364 1 
0.0001 0.000125 2.5e-05 0 0 0 1051.36 365 1 
0.000125 0.000125 2.5e-05 0 0 0 1051.36 366 1 
0.00015 0.000125 2.5e-05 0 0 0 1051.36 367 1 
0.000175 0.000125 2.5e-05 0 0 0 1051.36 368 1 
0.0002 0.000125 2.5e-05 0 0 0 1051.36 369 1 
0.000225 0.000125 2.5e-05 0 0 0 1051.36 370 1 
0.00025 0.000125 2.5e-05 0 0 0 1051.36 371 1 
0.000275 0.000125 2.5e-05 0 0 0 1051.36 372 1 
0.0003 0.000125 2.5e-05 0 0 0 1051.82 373 1 
0.000325 0.000125 2.5e-05 0 0 0 1150.55 374 1 
0.00035 0.000125 2.5e-05 0 0 0 1350.57 375 1 
0 0.00015 2.5e-05 0 0 0 1350.57 376 1 
2.5e-05 0.00015 2.5e-05 0 0 0 1150.55 377 1 
5e-05 0.00015 2.5e-05 0 0 0 1051.82 378 1 
7.5e-05 0.00015 2.5e-05 0 0 0 1051.36 379 1 
0.0001 0.00015 2.5e-05 0 0 0 1051.36 380 1 
0.000125 0.00015 2.5e-05 0 0 0 1051.36 381 1 
0.00015 0.00015 2.5e-05 0 0 0 1051.36 382 1 
0.000175 0.00015 2.5e-05 0 0 0 1051.36 383 1 
0.0002 0.00015 2.5e-05 0 0 0 1051.36 384 1 
0.000225 0.00015 2.5e-05 0 0 0 1051.36 385 1 
0.00025 0.00015 2.5e-05 0 0 0 1051.36 386 1 
0.000275 0.00015 2.5e-05 0 0 0 1051.36 387 1 
0.0003 0.00015 2.5e-05 0 0 0 1051.82 388 1 
0.000325 0.00015 2.5e-05 0 0 0 1150.55 389 1 
0.00035 0.00015 2.5e-05 0 0 0 1350.57 390 1 
0 0.000175 2.5e-05 0 0 0 1350.57 391 1 
2.5e-05 0.000175 2.5e-05 0 0 0 1150.55 392 1 
5e-05 0.000175 2.5e-05 0 0 0 1051.82 393 1 
7.5e-05 0.000175 2.5e-05 0 0 0 1051.36 394 1 
0.0001 0.000175 2.5e-05 0 0 0 1051.36 395 1 
0.000125 0.000175 2.5e-05 0 0 0 1051.36 396 1 
0.00015 0.000175 2.5e-05 0 0 0 1051.36 397 1 
0.000175 0.000175 2.5e-05 0 0 0 1051.36 398 1 
0.0002 0.000175 2.5e-05 0 0 0 1051.36 399 1 
0.000225 0.000175 2.5e-05 0 0 0 1051.36 400 1 
0.00025 0.000175 2.5e-05 0 0 0 1051.36 401 1 
0.000275 0.000175 2.5e-05 0 0 0 1051.36 402 1 
0.0003 0.000175 2.5e-05 0 0 0 1051.82 403 1 
0.000325 0.000175 2.5e-05 0 0 0 1150.55 404 1 
0.00035 0.000175 2.5e-05 0 0 0 1350.57 405 1 
0 0.0002 2.5e-05 0 0 0 1350.57 406 1 
2.5e-05 0.0002 2.5e-05 0 0 0 1150.55 407 1 
5e-05 0.0002 2.5e-05 0 0 0 1051.82 408 1 
7.5e-05 0.0002 2.5e-05 0 0 0 1051.36 409 1 
0.0001 0.0002 2.5e-05 0 0 0 1051.36 410 1 
0.000125 0.0002 2.5e-05 0 0 0 1051.36 411 1 
0.00015 0.0002 2.5e-05 0 0 0 1051.36 412 1 
0.000175 0.0002 2.5e-05 0 0 0 1051.36 413 1 
0.0002 0.0002 2.5e-05 0 0 0 1051.36 414 1 
0.000225 0.0002 2.5e-05 0 0 0 1051.36 415 1 
0.00025 0.0002 2.5e-05 0 0 0 1051.36 416 1 
0.000275 0.0002 2.5e-05 0 0 0 1051.36 417 1 
0.0003 0.0002 2.5e-05 0 0 0 1051.82 418 1 
0.000325 0.0002 2.5e-05 0 0 0 1150.55 419 1 
0.00035 0.0002 2.5e-05 0 0 0 1350.57 420 1 
0 0.000225 2.5e-05 0 0 0 1350.57 421 1 
2.5e-05 0.000225 2.5e-05 0 0 0 1150.55 422 1 
5e-05 0.000225 2.5e-05 0 0 0 1051.82 423 1 
7.5e-05 0.000225 2.5e-05 0 0 0 1051.36 424 1 
0.0001 0.000225 2.5e-05 0 0 0 1051.36 425 1 
0.000125 0.000225 2.5e-05 0 0 0 1051.36 426 1 
0.00015 0.000225 2.5e-05 0 0 0 1051.36 427 1 
0.000175 0.000225 2.5e-05 0 0 0 1051.36 428 1 
0.0002 0.000225 2.5e-05 0 0 0 1051.36 429 1 
0.000225 0.000225 2.5e-05 0 0 0 1051.36 430 1 
0.00025 0.000225 2.5e-05 0 0 0 1051.36 431 1 
0.000275 0.000225 2.5e-05 0 0 0 1051.36 432 1 
0.0003 0.000225 2.5e-05 0 0 0 1051.82 433 1 
0.000325 0.000225 2.5e-05 0 0 0 1150.55 434 1 
0.00035 0.000225 2.5e-05 0 0 0 1350.57 435 1 
0 0.00025 2.5e-05 0 0 0 1350.57 436 1 
2.5e-05 0.00025 2.5e-05 0 0 0 1150.55 437 1 
5e-05 0.00025 2.5e-05 0 0 0 1051.82 438 1 
7.5e-05 0.00025 2.5e-05 0 0 0 1051.36 439 1 
0.0001 0.00025 2.5e-05 0 0 0 1051.36 440 1 
0.000125 0.00025 2.5e-05 0 0 0 1051.36 441 1 
0.00015 0.00025 2.5e-05 0 0 0 1051.36 442 1 
0.000175 0.00025 2.5e-05 0 0 0 1051.36 443 1 
0.0002 0.00025 2.5e-05 0 0 0 1051.36 444 1 
0.000225 0.00025 2.5e-05 0 0 0 1051.36 445 1 
0.00025 0.00025 2.5e-05 0 0 0 1051.36 446 1 
0.000275 0.00025 2.5e-05 0 0 0 1051.36 447 1 
0.0003 0.00025 2.5e-05 0 0 0 1051.82 448 1 
0.000325 0.00025 2.5e-05 0 0 0 1150.55 449 1 
0.00035 0.00025 2.5e-05 0 0 0 1350.57 450 1 
0 0.000275 2.5e-05 0 0 0 1350.57 451 1 
2.5e-05 0.000275 2.5e-05 0 0 0 1150.55 452 1 
5e-05 0.000275 2.5e-05 0 0 0 1051.82 453 1 
7.5e-05 0.000275 2.5e-05 0 0 0 1051.36 454 1 
0.0001 0.000275 2.5e-05 0 0 0 1051.36 455 1 
0.000125 0.000275 2.5e-05 0 0 0 1051.36 456 1 
0.00015 0.000275 2.5e-05 0 0 0 1051.36 457 1 
0.000175 0.000275 2.5e-05 0 0 0 1051.36 458 1 
0.0002 0.000275 2.5e-05 0 0 0 1051.36 459 1 
0.000225 0.000275 2.5e-05 0 0 0 1051.36 460 1 
0.00025 0.000275 2.5e-05 0 0 0 1051.36 461 1 
0.000275 0.000275 2.5e-05 0 0 0 1051.36 462 1 
0.0003 0.000275 2.5e-05 0 0 0 1051.82 463 1 
0.000325 0.000275 2.5e-05 0 0 0 1150.55 464 1 
0.00035 0.000275 2.5e-05 0 0 0 1350.57 465 1 
0 0.0003 2.5e-05 0 0 0 1350.57 466 1 
2.5e-05 0.0003 2.5e-05 0 0 0 1150.55 467 1 
5e-05 0.0003 2.5e-05 0 0 0 1051.82 468 1 
7.5e-05 0.0003 2.5e-05 0 0 0 1051.36 469 1 
0.0001 0.0003 2.5e-05 0 0 0 1051.36 470 1 
0.000125 0.0003 2.5e-05 0 0 0 1051.36 471 1 
0.00015 0.0003 2.5e-05 0 0 0 1051.36 472 1 
0.000175 0.0003 2.5e-05 0 0 0 1051.36 473 1 
0.0002 0.0003 2.5e-05 0 0 0 1051.36 474 1 
0.000225 0.0003 2.5e-05 0 0 0 1051.36 475 1 
0.00025 0.0003 2.5e-05 0 0 0 1051.36 476 1 
0.000275 0.0003 2.5e-05 0 0 0 1051.36 477 1 
0.0003 0.0003 2.5e-05 0 0 0 1051.82 478 1 
0.000325 0.0003 2.5e-05 0 0 0 1150.55 479 1 
0.00035 0.0003 2.5e-05 0 0 0 1350.57 480 1 
0 0.000325 2.5e-05 0 0 0 1350.57 481 1 
2.5e-05 0.000325 2.5e-05 0 0 0 1150.55 482 1 
5e-05 0.000325 2.5e-05 0 0 0 1051.82 483 1 
7.5e-05 0.000325 2.5e-05 0 0 0 1051.36 484 1 
0.0001 0.000325 2.5e-05 0 0 0 1051.36 485 1 
0.000125 0.000325 2.5e-05 0 0 0 1051.36 486 1 
0.00015 0.000325 2.5e-05 0 0 0 1051.36 487 1 
0.000175 0.000325 2.5e-05 0 0 0 1051.36 488 1 
0.0002 0.000325 2.5e-05 0 0 0 1051.36 489 1 
0.000225 0.000325 2.5e-05 0 0 0 1051.36 490 1 
0.00025 0.000325 2.5e-05 0 0 0 1051.36 491 1 
0.000275 0.000325 2.5e-05 0 0 0 1051.36 492 1 
0.0003 0.000325 2.5e-05 0 0 0 1051.82 493 1 
0.000325 0.000325 2.5e-05 0 0 0 1150.55 494 1 
0.00035 0.000325 2.5e-05 0 0 0 1350.57 495 1 
0 0.00035 2.5e-05 0 0 0 1350.57 496 1 
2.5e-05 0.00035 2.5e-05 0 0 0 1150.55 497 1 
5e-05 0.00035 2.5e-05 0 0 0 1051.82 498 1 
7.5e-05 0.00035 2.5e-05 0 0 0 1051.36 499 1 
0.0001 0.00035 2.5e-05 0 0 0 1051.36 500 1 
0.000125 0.00035 2.5e-05 0 0 0 1051.36 501 1 
0.00015 0.00035 2.5e-05 0 0 0 1051.36 502 1 
0.000175 0.00035 2.5e-05 0 0 0 1051.36 503 1 
0.0002 0.00035 2.5e-05 0 0 0 1051.36 504 1 
0.000225 0.00035 2.5e-05 0 0 0 1051.36 505 1 
0.00025 0.00035 2.5e-05 0 0 0 1051.36 506 1 
0.000275 0.00035 2.5e-05 0 0 0 1051.36 507 1 
0.0003 0.00035 2.5e-05 0 0 0 1051.82 508 1 
0.000325 0.00035 2.5e-05 0 0 0 1150.55 509 1 
0.00035 0.00035 2.5e-05 0 0 0 1350.57 510 1 
0 0.000375 2.5e-05 0 0 0 1350.57 511 1 
2.5e-05 0.000375 2.5e-05 0 0 0 1150.55 512 1 
5e-05 0.000375 2.5e-05 0 0 0 1051.82 513 1 
7.5e-05 0.000375 2.5e-05 0 0 0 1051.36 514 1 
0.0001 0.000375 2.5e-05 0 0 0 1051.36 515 1 
0.000125 0.000375 2.5e-05 0 0 0 1051.36 516 1 
0.00015 0.000375 2.5e-05 0 0 0 1051.36 517 1 
0.000175 0.000375 2.5e-05 0 0 0 1051.36 518 1 
0.0002 0.000375 2.5e-05 0 0 0 1051.36 519 1 
0.000225 0.000375 2.5e-05 0 0 0 1051.36 520 1 
0.00025 0.000375 2.5e-05 0 0 0 1051.36 521 1 
0.000275 0.000375 2.5e-05 0 0 0 1051.36 522 1 
0.0003 0.000375 2.5e-05 0 0 0 1051.82 523 1 
0.000325 0.000375 2.5e-05 0 0 0 1150.55 524 1 
0.00035 0.000375 2.5e-05 0 0 0 1350.57 525 1 
0 0.0004 2.5e-05 0 0 0 1350.57 526 1 
2.5e-05 0.0004 2.5e-05 0 0 0 1150.55 527 1 
5e-05 0.0004 2.5e-05 0 0 0 1051.82 528 1 
7.5e-05 0.0004 2.5e-05 0 0 0 1051.36 529 1 
0.0001 0.0004 2.5e-05 0 0 0 1051.36 530 1 
0.000125 0.0004 2.5e-05 0 0 0 1051.36 531 1 
0.00015 0.0004 2.5e-05 0 0 0 1051.36 532 1 
0.000175 0.0004 2.5e-05 0 0 0 1051.36 533 1 
0.0002 0.0004 2.5e-05 0 0 0 1051.36 534 1 
0.000225 0.0004 2.5e-05 0 0 0 1051.36 535 1 
0.00025 0.0004 2.5e-05 0 0 0 1051.36 536 1 
0.000275 0.0004 2.5e-05 0 0 0 1051.36 537 1 
0.0003 0.0004 2.5e-05 0 0 0 1051.82 538 1 
0.000325 0.0004 2.5e-05 0 0 0 1150.55 539 1 
0.00035 0.0004 2.5e-05 0 0 0 1350.57 540 1 
0 0.000425 2.5e-05 0 0 0 1350.57 541 1 
2.5e-05 0.000425 2.5e-05 0 0 0 1150.55 542 1 
5e-05 0.000425 2.5e-05 0 0 0 1051.82 543 1 
7.5e-05 0.000425 2.5e-05 0 0 0 1051.36 544 1 
0.0001 0.000425 2.5e-05 0 0 0 1051.36 545 1 
0.000125 0.000425 2.5e-05 0 0 0 1051.36 546 1 
0.00015 0.000425 2.5e-05 0 0 0 1051.36 547 1 
0.000175 0.000425 2.5e-05 0 0 0 1051.36 548 1 
0.0002 0.000425 2.5e-05 0 0 0 1051.36 549 1 
0.000225 0.000425 2.5e-05 0 0 0 1051.36 550 1 
0.00025 0.000425 2.5e-05 0 0 0 1051.36 551 1 
0.000275 0.000425 2.5e-05 0 0 0 1051.36 552 1 
0.0003 0.000425 2.5e-05 0 0 0 1051.82 553 1 
0.000325 0.000425 2.5e-05 0 0 0 1150.55 554 1 
0.00035 0.000425 2.5e-05 0 0 0 1350.57 555 1 
0 0.00045 2.5e-05 0 0 0 1350.57 556 1 
2.5e-05 0.00045 2.5e-05 0 0 0 1150.55 557 1 
5e-05 0.00045 2.5e-05 0 0 0 1051.82 558 1 
7.5e-05 0.00045 2.5e-05 0 0 0 1051.36 559 1 
0.0001 0.00045 2.5e-05 0 0 0 1051.36 560 1 
0.000125 0.00045 2.5e-05 0 0 0 1051.36 561 1 
0.00015 0.00045 2.5e-05 0 0 0 1051.36 562 1 
0.000175 0.00045 2.5e-05 0 0 0 1051.36 563 1 
0.0002 0.00045 2.5e-05 0 0 0 1051.36 564 1 
0.000225 0.00045 2.5e-05 0 0 0 1051.36 565 1 
0.00025 0.00045 2.5e-05 0 0 0 1051.36 566 1 
0.000275 0.00045 2.5e-05 0 0 0 1051.36 567 1 
0.0003 0.00045 2.5e-05 0 0 0 1051.82 568 1 
0.000325 0.00045 2.5e-05 0 0 0 1150.55 569 1 
0.00035 0.00045 2.5e-05 0 0 0 1350.57 570 1 
0 0 5e-05 0 0 0 1970.74 571 1 
2.5e-05 0 5e-05 0 0 0 1685.52 572 1 
5e-05 0 5e-05 0 0 0 1538.88 573 1 
7.5e-05 0 5e-05 0 0 0 1538 574 1 
0.0001 0 5e-05 0 0 0 1538 575 1 
0.000125 0 5e-05 0 0 0 1538 576 1 
0.00015 0 5e-05 0 0 0 1538 577 1 
0.000175 0 5e-05 0 0 0 1538 578 1 
0.0002 0 5e-05 0 0 0 1538 579 1 
0.000225 0 5e-05 0 0 0 1538 580 1 
0.00025 0 5e-05 0 0 0 1538 581 1 
0.000275 0 5e-05 0 0 0 1538 582 1 
0.0003 0 5e-05 0 0 0 1538.88 583 1 
0.000325 0 5e-05 0 0 0 1685.52 584 1 
0.00035 0 5e-05 0 0 0 1970.74 585 1 
0 2.5e-05 5e-05 0 0 0 1644.07 586 1 
2.5e-05 2.5e-05 5e-05 0 0 0 1399.27 587 1 
5e-05 2.5e-05 5e-05 0 0 0 1279.24 588 1 
7.5e-05 2.5e-05 5e-05 0 0 0 1278.78 589 1 
0.0001 2.5e-05 5e-05 0 0 0 1278.78 590 1 
0.000125 2.5e-05 5e-05 0 0 0 1278.78 591 1 
0.00015 2.5e-05 5e-05 0 0 0 1278.78 592 1 
0.000175 2.5e-05 5e-05 0 0 0 1278.78 593 1 
0.0002 2.5e-05 5e-05 0 0 0 1278.78 594 1 
0.000225 2.5e-05 5e-05 0 0 0 1278.78 595 1 
0.00025 2.5e-05 5e-05 0 0 0 1278.78 596 1 
0.000275 2.5e-05 5e-05 0 0 0 1278.78 597 1 
0.0003 2.5e-05 5e-05 0 0 0 1279.24 598 1 
0.000325 2.5e-05 5e-05 0 0 0 1399.27 599 1 
0.00035 2.5e-05 5e-05 0 0 0 1644.07 600 1 
0 5e-05 5e-05 0 0 0 1365.48 601 1 
2.5e-05 5e-05 5e-05 0 0 0 1161.31 602 1 
5e-05 5e-05 5e-05 0 0 0 1062.42 603 1 
7.5e-05 5e-05 5e-05 0 0 0 1061.96 604 1 
0.0001 5e-05 5e-05 0 0 0 1061.96 605 1 
0.000125 5e-05 5e-05 0 0 0 1061.96 606 1 
0.00015 5e-05 5e-05 0 0 0 1061.96 607 1 
0.000175 5e-05 5e-05 0 0 0 1061.96 608 1 
0.0002 5e-05 5e-05 0 0 0 1061.96 609 1 
0.000225 5e-05 5e-05 0 0 0 1061.96 610 1 
0.00025 5e-05 5e-05 0 0 0 1061.96 611 1 
0.000275 5e-05 5e-05 0 0 0 1061.96 612 1 
0.0003 5e-05 5e-05 0 0 0 1062.42 613 1 
0.000325 5e-05 5e-05 0 0 0 1161.31 614 1 
0.00035 5e-05 5e-05 0 0 0 1365.48 615 1 
0 7.5e-05 5e-05 0 0 0 1350.57 616 1 
2.5e-05 7.5e-05 5e-05 0 0 0 1150.55 617 1 
5e-05 7.5e-05 5e-05 0 0 0 1051.82 618 1 
7.5e-05 7.5e-05 5e-05 0 0 0 1051.36 619 1 
0.0001 7.5e-05 5e-05 0 0 0 1051.36 620 1 
0.000125 7.5e-05 5e-05 0 0 0 1051.36 621 1 
0.00015 7.5e-05 5e-05 0 0 0 1051.36 622 1 
0.000175 7.5e-05 5e-05 0 0 0 1051.36 623 1 
0.0002 7.5e-05 5e-05 0 0 0 1051.36 624 1 
0.000225 7.5e-05 5e-05 0 0 0 1051.36 625 1 
0.00025 7.5e-05 5e-05 0 0 0 1051.36 626 1 
0.000275 7.5e-05 5e-05 0 0 0 1051.36 627 1 
0.0003 7.5e-05 5e-05 0 0 0 1051.82 628 1 
0.000325 7.5e-05 5e-05 0 0 0 1150.55 629 1 
0.00035 7.5e-05 5e-05 0 0 0 1350.57 630 1 
0 0.0001 5e-05 0 0 0 1350.57 631 1 
2.5e-05 0.0001 5e-05 0 0 0 1150.55 632 1 
5e-05 0.0001 5e-05 0 0 0 1051.82 633 1 
7.5e-05 0.0001 5e-05 0 0 0 1051.36 634 1 
0.0001 0.0001 5e-05 0 0 0 1051.36 635 1 
0.000125 0.0001 5e-05 0 0 0 1051.36 636 1 
0.00015 0.0001 5e-05 0 0 0 1051.36 637 1 
0.000175 0.0001 5e-05 0 0 0 1051.36 638 1 
0.0002 0.0001 5e-05 0 0 0 1051.36 639 1 
0.000225 0.0001 5e-05 0 0 0 1051.36 640 1 
0.00025 0.0001 5e-05 0 0 0 1051.36 641 1 
0.000275 0.0001 5e-05 0 0 0 1051.36 642 1 
0.0003 0.0001 5e-05 0 0 0 1051.82 643 1 
0.000325 0.0001 5e-05 0 0 0 1150.55 644 1 
0.00035 0.0001 5e-05 0 0 0 1350.57 645 1 
0 0.000125 5e-05 0 0 0 1350.57 646 1 
2.5e-05 0.000125 5e-05 0 0 0 1150.55 647 1 
5e-05 0.000125 5e-05 0 0 0 1051.82 648 1 
7.5e-05 0.000125 5e-05 0 0 0 1051.36 649 1 
0.0001 0.000125 5e-05 0 0 0 1051.36 650 1 
0.000125 0.000125 5e-05 0 0 0 1051.36 651 1 
0.00015 0.000125 5e-05 0 0 0 1051.36 652 1 
0.000175 0.000125 5e-05 0 0 0 1051.36 653 1 
0.0002 0.000125 5e-05 0 0 0 1051.36 654 1 
0.000225 0.000125 5e-05 0 0 0 1051.36 655 1 
0.00025 0.000125 5e-05 0 0 0 1051.36 656 1 
0.000275 0.000125 5e-05 0 0 0 1051.36 657 1 
0.0003 0.000125 5e-05 0 0 0 1051.82 658 1 
0.000325 0.000125 5e-05 0 0 0 1150.55 659 1 
0.00035 0.000125 5e-05 0 0 0 1350.57 660 1 
0 0.00015 5e-05 0 0 0 1350.57 661 1 
2.5e-05 0.00015 5e-05 0 0 0 1150.55 662 1 
5e-05 0.00015 5e-05 0 0 0 1051.82 663 1 
7.5e-05 0.00015 5e-05 0 0 0 1051.36 664 1 
0.0001 0.00015 5e-05 0 0 0 1051.36 665 1 
0.000125 0.00015 5e-05 0 0 0 1051.36 666 1 
0.00015 0.00015 5e-05 0 0 0 1051.36 667 1 
0.000175 0.00015 5e-05 0 0 0 1051.36 668 1 
0.0002 0.00015 5e-05 0 0 0 1051.36 669 1 
0.000225 0.00015 5e-05 0 0 0 1051.36 670 1 
0.00025 0.00015 5e-05 0 0 0 1051.36 671 1 
0.000275 0.00015 5e-05 0 0 0 1051.36 672 1 
0.0003 0.00015 5e-05 0 0 0 1051.82 673 1 
0.000325 0.00015 5e-05 0 0 0 1150.55 674 1 
0.00035 0.00015 5e-05 0 0 0 1350.57 675 1 
0 0.000175 5e-05 0 0 0 1350.57 676 1 
2.5e-05 0.000175 5e-05 0 0 0 1150.55 677 1 
5e-05 0.000175 5e-05 0 0 0 1051.82 678 1 
7.5e-05 0.000175 5e-05 0 0 0 1051.36 679 1 
0.0001 0.000175 5e-05 0 0 0 1051.36 680 1 
0.000125 0.000175 5e-05 0 0 0 1051.36 681 1 
0.00015 0.000175 5e-05 0 0 0 1051.36 682 1 
0.000175 0.000175 5e-05 0 0 0 1051.36 683 1 
0.0002 0.000175 5e-05 0 0 0 1051.36 684 1 
0.000225 0.000175 5e-05 0 0 0 1051.36 685 1 
0.00025 0.000175 5e-05 0 0 0 1051.36 686 1 
0.000275 0.000175 5e-05 0 0 0 1051.36 687 1 
0.0003 0.000175 5e-05 0 0 0 1051.82 688 1 
0.000325 0.000175 5e-05 0 0 0 1150.55 689 1 
0.00035 0.000175 5e-05 0 0 0 1350.57 690 1 
0 0.0002 5e-05 0 0 0 1350.57 691 1 
2.5e-05 0.0002 5e-05 0 0 0 1150.55 692 1 
5e-05 0.0002 5e-05 0 0 0 1051.82 693 1 
7.5e-05 0.0002 5e-05 0 0 0 1051.36 694 1 
0.0001 0.0002 5e-05 0 0 0 1051.36 695 1 
0.000125 0.0002 5e-05 0 0 0 1051.36 696 1 
0.00015 0.0002 5e-05 0 0 0 1051.36 697 1 
0.000175 0.0002 5e-05 0 0 0 1051.36 698 1 
0.0002 0.0002 5e-05 0 0 0 1051.36 699 1 
0.000225 0.0002 5e-05 0 0 0 1051.36 700 1 
0.00025 0.0002 5e-05 0 0 0 1051.36 701 1 
0.000275 0.0002 5e-05 0 0 0 1051.36 702 1 
0.0003 0.0002 5e-05 0 0 0 1051.82 703 1 
0.000325 0.0002 5e-05 0 0 0 1150.55 704 1 
0.00035 0.0002 5e-05 0 0 0 1350.57 705 1 
0 0.000225 5e-05 0 0 0 1350.57 706 1 
2.5e-05 0.000225 5e-05 0 0 0 1150.55 707 1 
5e-05 0.000225 5e-05 0 0 0 1051.82 708 1 
7.5e-05 0.000225 5e-05 0 0 0 1051.36 709 1 
0.0001 0.000225 5e-05 0 0 0 1051.36 710 1 
0.000125 0.000225 5e-05 0 0 0 1051.36 711 1 
0.00015 0.000225 5e-05 0 0 0 1051.36 712 1 
0.000175 0.000225 5e-05 0 0 0 1051.36 713 1 
0.0002 0.000225 5e-05 0 0 0 1051.36 714 1 
0.000225 0.000225 5e-05 0 0 0 1051.36 715 1 
0.00025 0.000225 5e-05 0 0 0 1051.36 716 1 
0.000275 0.000225 5e-05 0 0 0 1051.36 717 1 
0.0003 0.000225 5e-05 0 0 0 1051.82 718 1 
0.000325 0.000225 5e-05 0 0 0 1150.55 719 1 
0.00035 0.000225 5e-05 0 0 0 1350.57 720 1 
0 0.00025 5e-05 0 0 0 1350.57 721 1 
2.5e-05 0.00025 5e-05 0 0 0 1150.55 722 1 
5e-05 0.00025 5e-05 0 0 0 1051.82 723 1 
7.5e-05 0.00025 5e-05 0 0 0 1051.36 724 1 
0.0001 0.00025 5e-05 0 0 0 1051.36 725 1 
0.000125 0.00025 5e-05 0 0 0 1051.36 726 1 