ITEM: TIMESTEP
1900
ITEM: NUMBER OF ATOMS
2220
ITEM: BOX BOUNDS xy xz yz pp pp pp
0 0.000446055 8.54547e-05
0 0.0009015 0
0 9.015e-05 0
ITEM: ATOMS x y z vx vy vy c_rho_peratom id type 
5.54995e-05 1.3576e-05 8.54981e-05 0.00040365 3.5696e-05 3.5696e-05 1196.53 1 1 
0.0001476 0.000890297 8.34694e-05 0.0445164 8.24412e-05 8.24412e-05 1234.74 2 1 
0.000104106 1.02575e-05 5.43704e-06 0.000424186 0.000250476 0.000250476 1219.51 3 1 
0.000183886 0.000887073 7.14786e-07 0.0440627 1.76933e-05 1.76933e-05 1259.25 4 1 
0.000421892 0.000895159 8.59093e-05 0.0445952 4.73659e-05 4.73659e-05 1222.44 5 1 
0.000192884 1.40935e-05 8.39362e-05 0.000638106 0.000129039 0.000129039 1167.02 6 1 
0.000244112 0.00089585 1.01751e-05 0.0448579 3.84593e-05 3.84593e-05 1187.53 7 1 
0.000224486 9.14708e-06 8.89179e-05 0.000512957 -1.21446e-05 -1.21446e-05 1159.89 8 1 
0.000268751 5.47787e-06 6.72479e-06 0.000440111 2.75557e-06 2.75557e-06 1256.27 9 1 
0.000274138 2.38418e-05 8.10504e-05 0.00162026 -5.00056e-06 -5.00056e-06 1244.52 10 1 
0.000301621 1.07576e-05 5.77121e-06 0.000431339 -0.000116632 -0.000116632 1218.9 11 1 
0.00033842 9.46297e-06 5.97214e-06 0.000436211 -3.66725e-05 -3.66725e-05 1211.28 12 1 
0.000395047 0.000897554 4.56345e-06 0.0453607 0.000279937 0.000279937 1200.14 13 1 
1.81313e-05 7.48732e-06 7.69159e-06 0.000267133 3.32231e-05 3.32231e-05 1201.98 14 1 
0.000265454 5.80243e-07 1.69742e-05 2.59647e-06 -0.000148473 -0.000148473 1249.75 15 1 
5.11579e-05 3.89821e-05 8.33092e-05 0.00203399 0.000100627 0.000100627 1204.55 16 1 
8.38497e-05 3.68373e-05 9.34087e-06 0.00190151 -3.13439e-05 -3.13439e-05 1202.09 17 1 
0.000102218 3.45808e-05 2.60152e-07 0.00146972 -0.00011158 -0.00011158 1206.2 18 1 
0.000126859 4.87891e-05 8.331e-05 0.0024964 -0.000217407 -0.000217407 1219.89 19 1 
0.000148168 3.46384e-05 8.62651e-06 0.00156462 -0.000187457 -0.000187457 1195.88 20 1 
0.00017103 3.92098e-05 8.89463e-05 0.00205927 0.000246908 0.000246908 1232.55 21 1 
0.000188052 3.18824e-05 4.79298e-06 0.00173568 -8.72402e-05 -8.72402e-05 1233.87 22 1 
0.000219723 2.77087e-05 8.64568e-05 0.00108729 -0.000178599 -0.000178599 1174.35 23 1 
0.000249245 4.42037e-05 1.56918e-05 0.0022348 5.29371e-05 5.29371e-05 1201.01 24 1 
0.000270517 4.64763e-05 8.40797e-05 0.00247085 0.000245765 0.000245765 1222.76 25 1 
0.00030193 3.05616e-05 6.71354e-06 0.00154993 -0.000103371 -0.000103371 1224.59 26 1 
0.000315974 3.47643e-05 1.59479e-05 0.0015536 -5.99856e-05 -5.99856e-05 1233.55 27 1 
0.000342122 3.91961e-05 8.65388e-05 0.00241467 -9.03332e-05 -9.03332e-05 1205.93 28 1 
1.35101e-05 4.39795e-05 6.8829e-06 0.00218015 -6.85096e-05 -6.85096e-05 1223.97 29 1 
3.10988e-05 3.86953e-05 8.68855e-05 0.00200274 -0.000321806 -0.000321806 1201.29 30 1 
6.51286e-05 6.61622e-05 8.64917e-05 0.00337152 0.000231693 0.000231693 1209.89 31 1 
8.2016e-05 4.62779e-05 4.08442e-06 0.00231201 0.00019482 0.00019482 1210.92 32 1 
0.000107637 6.26836e-05 4.58367e-06 0.00304983 -0.000202209 -0.000202209 1217.35 33 1 
0.000132335 4.70173e-05 8.93944e-05 0.00265599 0.000160261 0.000160261 1215.41 34 1 
0.000165636 6.30489e-05 1.34963e-06 0.00312314 2.45681e-05 2.45681e-05 1228.76 35 1 
0.000191349 6.10311e-05 8.37815e-06 0.0030629 -5.42854e-05 -5.42854e-05 1226.56 36 1 
0.000202933 5.63251e-05 9.02438e-07 0.0027417 -0.000224236 -0.000224236 1226.93 37 1 
0.000225167 5.30992e-05 8.94049e-05 0.00290058 0.000160314 0.000160314 1202.82 38 1 
0.000254513 5.30068e-05 8.80947e-05 0.00280022 -0.00021412 -0.00021412 1216.13 39 1 
0.000285106 5.99512e-05 8.73502e-06 0.00275091 6.96206e-05 6.96206e-05 1205.8 40 1 
0.000301925 5.9693e-05 1.10636e-05 0.00304569 4.98792e-05 4.98792e-05 1212.13 41 1 
0.000325248 5.80959e-05 8.60732e-05 0.002905 0.0001409 0.0001409 1223.14 42 1 
0.000353813 4.93045e-05 3.49355e-06 0.0024526 6.13742e-05 6.13742e-05 1209.55 43 1 
9.24952e-06 5.35613e-05 1.77095e-06 0.00242241 0.000250268 0.000250268 1214.15 44 1 
4.37451e-05 5.69341e-05 5.9047e-07 0.00300386 -0.000237728 -0.000237728 1223.14 45 1 
9.72412e-05 8.94223e-05 6.68104e-06 0.00457103 9.09841e-05 9.09841e-05 1191.28 46 1 
0.000101757 7.2906e-05 8.66424e-05 0.00371239 -0.000137537 -0.000137537 1191.12 47 1 
0.000126565 7.95427e-05 6.72866e-08 0.00389277 3.51542e-05 3.51542e-05 1206.53 48 1 
0.000165404 8.44123e-05 3.44409e-06 0.00452891 0.000291844 0.000291844 1217.15 49 1 
0.000183028 8.49523e-05 5.8587e-06 0.00437402 6.90394e-06 6.90394e-06 1187.04 50 1 
0.000211407 8.51133e-05 8.25529e-05 0.00411448 4.59393e-05 4.59393e-05 1204.65 51 1 
0.000245446 9.00687e-05 2.20633e-06 0.00465958 -0.000179724 -0.000179724 1209.36 52 1 
0.000264917 8.67587e-05 7.35828e-06 0.00432623 0.000151791 0.000151791 1192.22 53 1 
0.000284033 7.86498e-05 5.24983e-06 0.00395192 9.63353e-05 9.63353e-05 1184.27 54 1 
0.00029883 8.89326e-05 1.97721e-06 0.00433304 4.44218e-05 4.44218e-05 1167.8 55 1 
0.000333268 8.33795e-05 8.65645e-05 0.00426251 5.33706e-05 5.33706e-05 1199.2 56 1 
0.000355966 7.50605e-05 3.64518e-06 0.00373763 0.000153957 0.000153957 1188.83 57 1 
2.30702e-05 9.05881e-05 8.43174e-05 0.0042698 -7.3235e-05 -7.3235e-05 1213.71 58 1 
3.97393e-05 8.84519e-05 8.90749e-05 0.00453328 9.17254e-05 9.17254e-05 1223.09 59 1 
5.84769e-05 8.17424e-05 6.43932e-06 0.00396278 0.000348291 0.000348291 1202.04 60 1 
0.000101138 0.000108359 9.50097e-06 0.00518952 9.55845e-05 9.55845e-05 1190.29 61 1 
0.000129983 9.9907e-05 1.53577e-06 0.0053579 -7.03671e-05 -7.03671e-05 1212.29 62 1 
0.000158331 0.000112199 8.68817e-05 0.00563159 -1.17372e-06 -1.17372e-06 1204.18 63 1 
0.000177758 0.000102276 6.00197e-06 0.00500705 -0.000208632 -0.000208632 1180.64 64 1 
0.000217486 0.000112036 9.04075e-06 0.00556208 -1.18119e-05 -1.18119e-05 1213.34 65 1 
0.000233205 0.000110341 4.06222e-06 0.00559997 -0.000184133 -0.000184133 1227.61 66 1 
0.000247542 9.81504e-05 8.45396e-05 0.00449423 2.14788e-05 2.14788e-05 1215.08 67 1 
0.000284711 0.000109706 8.62069e-05 0.00540332 0.000298421 0.000298421 1171.85 68 1 
0.000287104 0.000109045 8.83853e-05 0.00551506 7.15223e-05 7.15223e-05 1168.93 69 1 
0.000322566 9.96916e-05 4.87231e-07 0.00520518 0.000134692 0.000134692 1190.21 70 1 
0.000345786 0.000100628 1.01521e-05 0.00541764 0.000185882 0.000185882 1193.11 71 1 
2.34928e-05 0.000113893 3.14723e-06 0.00596387 -2.43562e-06 -2.43562e-06 1226.3 72 1 
4.31625e-05 0.000108359 4.46584e-06 0.00543746 0.000129222 0.000129222 1219.91 73 1 
6.62608e-05 0.000110345 5.96633e-06 0.00555865 -0.000249217 -0.000249217 1187.67 74 1 
9.02451e-05 0.000108053 8.8075e-06 0.00530761 -0.000225775 -0.000225775 1195.09 75 1 
0.000114712 0.000118584 1.8124e-06 0.00590454 0.00020565 0.00020565 1198.63 76 1 
0.00015165 0.00012675 8.79331e-05 0.00635857 -0.000291435 -0.000291435 1192.76 77 1 
0.000182244 0.000132534 8.93478e-05 0.00650145 0.000305565 0.000305565 1203.05 78 1 
0.000214486 0.000131244 1.55963e-06 0.00631947 -6.09338e-05 -6.09338e-05 1208.78 79 1 
0.00022943 0.000132029 2.94132e-06 0.00640217 0.000104793 0.000104793 1207.96 80 1 
0.000256413 0.000135461 8.23581e-06 0.00688049 -0.000144434 -0.000144434 1178.89 81 1 
0.00028649 0.00013401 1.09367e-05 0.00672777 2.02971e-06 2.02971e-06 1205.48 82 1 
0.000305604 0.00013293 4.82471e-06 0.00678873 -0.000131856 -0.000131856 1215.67 83 1 
0.00033616 0.000131936 6.6498e-06 0.00650269 0.000181417 0.000181417 1224.4 84 1 
0.000347642 0.000129514 7.80668e-06 0.00637685 0.000252842 0.000252842 1226.61 85 1 
0.000370782 0.000132467 8.86783e-05 0.00673711 -2.085e-05 -2.085e-05 1225.65 86 1 
2.95458e-05 0.000126754 8.89907e-05 0.00629115 6.91487e-05 6.91487e-05 1236.17 87 1 
6.69221e-05 0.00013334 2.60015e-06 0.00699505 5.93057e-05 5.93057e-05 1185.4 88 1 
9.00087e-05 0.000129425 8.3347e-05 0.00649154 -2.80948e-05 -2.80948e-05 1213.13 89 1 
0.000136053 0.000143135 2.28775e-06 0.006876 -0.000178056 -0.000178056 1200.79 90 1 
0.000151793 0.000145139 1.3998e-05 0.00712016 3.76584e-06 3.76584e-06 1207.96 91 1 
0.000191925 0.000157832 2.03666e-06 0.00801733 9.86289e-05 9.86289e-05 1203.07 92 1 
0.000201042 0.000156873 4.80117e-06 0.0078067 -0.000380518 -0.000380518 1208.97 93 1 
0.000227142 0.000152958 8.80578e-05 0.00756759 -0.00032953 -0.00032953 1213.82 94 1 
0.000250362 0.000146427 5.15963e-06 0.00753975 1.94746e-05 1.94746e-05 1196.6 95 1 
0.000284701 0.000147682 5.01647e-06 0.0070583 -0.00047002 -0.00047002 1214.72 96 1 
0.000306388 0.000165104 7.42164e-06 0.00802589 6.75777e-05 6.75777e-05 1203.19 97 1 
0.000323314 0.000148993 8.91746e-05 0.00745502 2.18555e-05 2.18555e-05 1213.18 98 1 
0.000343136 0.000153503 8.49419e-05 0.00761724 9.22095e-05 9.22095e-05 1224.57 99 1 
0.000373362 0.000152942 8.39137e-05 0.00746849 -0.000219648 -0.000219648 1210.15 100 1 
3.92466e-05 0.000150771 5.76533e-06 0.00784088 -8.33007e-05 -8.33007e-05 1221.35 101 1 
5.42776e-05 0.000154483 8.26062e-05 0.00772153 8.21739e-05 8.21739e-05 1207.55 102 1 
7.7274e-05 0.000153686 8.72335e-05 0.00775256 6.5744e-05 6.5744e-05 1201.16 103 1 
0.000104544 0.000150651 8.05867e-05 0.00782115 0.000248396 0.000248396 1226.89 104 1 
0.000136806 0.000155723 4.66138e-06 0.00781711 -0.000101521 -0.000101521 1209 105 1 
0.000168884 0.000178837 6.05822e-06 0.00867979 -6.14298e-05 -6.14298e-05 1175.05 106 1 
0.000205955 0.000174597 8.53e-05 0.00878161 1.81244e-05 1.81244e-05 1206.95 107 1 
0.000234748 0.000176074 5.77779e-06 0.00886172 0.00018702 0.00018702 1208.33 108 1 
0.000240781 0.000171679 8.63941e-05 0.00849503 1.9063e-05 1.9063e-05 1200.66 109 1 
0.000280318 0.000178271 1.14562e-05 0.00883069 -4.67752e-05 -4.67752e-05 1194.27 110 1 
0.000299318 0.000189345 5.33072e-06 0.00961704 -1.78193e-05 -1.78193e-05 1200.42 111 1 
0.000334347 0.000181345 3.97905e-06 0.0092574 0.000247804 0.000247804 1210.34 112 1 
0.000349098 0.000183552 3.04483e-06 0.00922533 -4.40996e-05 -4.40996e-05 1223.86 113 1 
0.000369148 0.00018442 8.50834e-05 0.00906634 -6.90345e-05 -6.90345e-05 1199.59 114 1 
3.81222e-05 0.000178004 8.94045e-05 0.00904403 0.000115601 0.000115601 1199.47 115 1 
5.88437e-05 0.000176807 7.93362e-06 0.00879066 0.000273423 0.000273423 1187.29 116 1 
8.40839e-05 0.00016632 1.22366e-05 0.00831108 0.000122044 0.000122044 1204.54 117 1 
0.000111122 0.000180927 8.8593e-05 0.00925135 -0.000266222 -0.000266222 1203.62 118 1 
0.000139878 0.000183701 8.99841e-06 0.00884643 0.000116559 0.000116559 1195.06 119 1 
0.000143964 0.000174588 1.01504e-06 0.00888629 0.000395577 0.000395577 1183.09 120 1 
0.00020835 0.000206522 8.57757e-05 0.0103563 0.000275076 0.000275076 1198.07 121 1 
0.000221181 0.000202486 7.54784e-06 0.010366 -0.000169942 -0.000169942 1193.03 122 1 
0.000251771 0.000206821 3.03035e-06 0.0101087 5.1505e-05 5.1505e-05 1172.74 123 1 
0.000279574 0.000207339 1.65041e-08 0.0101912 0.000209705 0.000209705 1204.9 124 1 
0.000308952 0.000212475 1.09943e-05 0.0107785 0.000122854 0.000122854 1163.99 125 1 
0.000320411 0.000200996 7.16438e-06 0.010065 -0.000431093 -0.000431093 1178.5 126 1 
0.000360233 0.000211449 8.56258e-05 0.0106621 1.92436e-05 1.92436e-05 1204.21 127 1 
0.000371611 0.000192474 5.79976e-06 0.00974606 -6.98051e-05 -6.98051e-05 1216.42 128 1 
3.94723e-05 0.000205952 1.43301e-05 0.0102683 0.000142899 0.000142899 1170.07 129 1 
6.40101e-05 0.000212218 1.42586e-06 0.0104342 9.10976e-05 9.10976e-05 1200.97 130 1 
8.81918e-05 0.000205668 8.78088e-05 0.0104094 0.000260712 0.000260712 1207.91 131 1 
0.000103458 0.000203412 8.21839e-05 0.0102828 3.77221e-05 3.77221e-05 1201.82 132 1 
0.000141928 0.000203102 7.02565e-06 0.0103806 0.000265182 0.000265182 1174.09 133 1 
0.000169246 0.000214462 4.81518e-06 0.0109974 0.000289076 0.000289076 1190.27 134 1 
0.000191567 0.000200941 8.93853e-05 0.00996579 9.92497e-06 9.92497e-06 1207.24 135 1 
0.000234463 0.000225838 4.82554e-06 0.011114 -0.000220486 -0.000220486 1184.36 136 1 
0.000250973 0.000228378 1.25155e-05 0.0115324 0.000126293 0.000126293 1171.92 137 1 
0.000284578 0.00022574 6.39099e-07 0.0110027 -4.37137e-05 -4.37137e-05 1180.64 138 1 
0.000311656 0.000232454 1.41564e-06 0.0118411 0.000141587 0.000141587 1167.27 139 1 
0.000334671 0.000235574 7.70357e-06 0.0118563 -2.36824e-05 -2.36824e-05 1206.76 140 1 
0.000352454 0.000221414 8.02682e-07 0.0111401 6.24747e-06 6.24747e-06 1213.41 141 1 
0.000376647 0.000230393 6.43604e-06 0.0118665 7.48537e-05 7.48537e-05 1178.7 142 1 
4.31045e-05 0.000227825 1.45748e-06 0.0112933 9.33142e-05 9.33142e-05 1185.47 143 1 
5.0967e-05 0.000223769 4.64108e-06 0.0109291 -4.55391e-05 -4.55391e-05 1192.47 144 1 
8.16313e-05 0.000219258 8.65704e-05 0.0106772 0.000132774 0.000132774 1206.83 145 1 
0.000107318 0.000229096 7.07384e-06 0.0116801 0.000283231 0.000283231 1176.82 146 1 
0.000127962 0.000228378 1.17964e-05 0.0114282 -8.43672e-05 -8.43672e-05 1160.04 147 1 
0.00016783 0.000227541 7.30735e-06 0.0110658 6.46783e-05 6.46783e-05 1182.46 148 1 
0.000178724 0.000219396 3.89353e-08 0.0109669 -3.32516e-05 -3.32516e-05 1196.5 149 1 
0.000207229 0.000230043 8.90203e-05 0.0114333 -6.27802e-05 -6.27802e-05 1192.19 150 1 
0.000253067 0.000258747 3.44535e-06 0.0129184 -0.000112313 -0.000112313 1181.76 151 1 
0.000277947 0.000260446 7.88333e-06 0.0131543 0.000187822 0.000187822 1191.14 152 1 
0.000308937 0.000253736 8.44314e-05 0.012555 0.000197213 0.000197213 1187.99 153 1 
0.000317707 0.000248786 2.86412e-06 0.0126748 1.63871e-05 1.63871e-05 1198.08 154 1 
0.000352085 0.000242718 8.79077e-05 0.0122774 -0.000131651 -0.000131651 1187.5 155 1 
0.000375721 0.000254994 7.93692e-06 0.0130024 -5.89844e-05 -5.89844e-05 1191.37 156 1 
4.12608e-05 0.000253875 8.60365e-05 0.0127638 -0.000210548 -0.000210548 1179.2 157 1 
6.30504e-05 0.000263643 3.39797e-06 0.0132461 -0.000203974 -0.000203974 1158.16 158 1 
8.48829e-05 0.000246871 1.89374e-06 0.0123622 -0.000223621 -0.000223621 1178.98 159 1 
0.00010958 0.00025238 8.01337e-05 0.0126753 -3.8085e-05 -3.8085e-05 1212.92 160 1 
0.000143048 0.000260504 3.92034e-06 0.0132416 4.91012e-05 4.91012e-05 1184.6 161 1 
0.000174802 0.000265713 8.49943e-05 0.0132106 -1.68681e-06 -1.68681e-06 1188.7 162 1 
0.000186268 0.0002606 7.12001e-06 0.0129737 0.000107564 0.000107564 1192.43 163 1 
0.000203984 0.00024993 5.68836e-06 0.0122377 -8.92308e-05 -8.92308e-05 1173.37 164 1 
0.00023066 0.000249956 1.37709e-06 0.0126883 0.000161537 0.000161537 1161.55 165 1 
0.000284461 0.000285837 8.35614e-05 0.0141979 -0.000132471 -0.000132471 1182.24 166 1 
0.000305725 0.000274319 8.01084e-07 0.0139677 -0.000222218 -0.000222218 1193.46 167 1 
0.000331861 0.000280736 7.94021e-06 0.0139993 5.15401e-05 5.15401e-05 1167.17 168 1 
0.000346351 0.000265116 8.95047e-05 0.0132315 -0.000162785 -0.000162785 1145.66 169 1 
0.000375029 0.000279817 9.03465e-06 0.014219 5.15045e-05 5.15045e-05 1205.28 170 1 
3.63649e-05 0.000273722 1.12295e-06 0.0135956 4.98005e-05 4.98005e-05 1193.54 171 1 
5.82113e-05 0.000270986 8.93274e-05 0.0136148 0.000254195 0.000254195 1159.82 172 1 
8.51208e-05 0.000280255 8.9754e-06 0.014224 0.000178607 0.000178607 1200.1 173 1 
0.000114294 0.000283501 3.44883e-06 0.0142055 -0.000265692 -0.000265692 1193.68 174 1 
0.000141575 0.000282281 4.28348e-06 0.0141212 -0.000174701 -0.000174701 1176.45 175 1 
0.000169374 0.000278699 1.59076e-05 0.014047 -2.53722e-05 -2.53722e-05 1187.53 176 1 
0.000184252 0.000272557 3.21879e-07 0.0136362 0.000167661 0.000167661 1182.37 177 1 
0.00021019 0.000282477 8.95362e-05 0.01417 -0.000339747 -0.000339747 1140.24 178 1 
0.000241415 0.000283653 2.4113e-06 0.0143475 5.94875e-05 5.94875e-05 1190.34 179 1 
0.000253435 0.000276632 8.98496e-05 0.013846 0.000115329 0.000115329 1209.26 180 1 
0.000309847 0.000304883 2.00197e-06 0.0154668 -7.3745e-05 -7.3745e-05 1195.9 181 1 
0.000317399 0.000285033 5.86192e-07 0.0141449 0.000200587 0.000200587 1193.11 182 1 
0.000352923 0.000306448 5.32023e-06 0.0152954 -4.18567e-05 -4.18567e-05 1170.36 183 1 
0.000374384 0.000301267 1.49931e-06 0.0149836 0.000299212 0.000299212 1203.46 184 1 
4.08022e-05 0.000296909 1.2934e-05 0.014818 -8.36177e-05 -8.36177e-05 1172.64 185 1 
4.86483e-05 0.000300813 7.80617e-05 0.0150968 -2.51108e-05 -2.51108e-05 1158.32 186 1 
7.65638e-05 0.000298313 8.47098e-05 0.014851 4.82967e-05 4.82967e-05 1179.81 187 1 
0.000107688 0.000296079 8.05364e-05 0.0149028 7.18371e-05 7.18371e-05 1170.37 188 1 
0.000133594 0.00030138 1.23441e-05 0.0151139 4.11664e-05 4.11664e-05 1170.77 189 1 
0.00016162 0.00030078 8.39263e-05 0.0152513 9.09987e-05 9.09987e-05 1153.22 190 1 
0.000191482 0.000305323 1.21731e-06 0.0150952 -0.000144098 -0.000144098 1165.82 191 1 
0.000207345 0.000307827 8.69157e-05 0.0154284 0.000213178 0.000213178 1168.09 192 1 
0.000240752 0.000311031 7.67975e-06 0.0155149 -0.000181819 -0.000181819 1178.65 193 1 
0.000253211 0.000293776 1.04061e-06 0.0144305 0.000174298 0.000174298 1208.31 194 1 
0.000291241 0.000306237 1.03412e-06 0.0155592 -0.000147027 -0.000147027 1172.77 195 1 
0.000320422 0.000329836 3.79782e-07 0.0164785 7.5297e-05 7.5297e-05 1190.4 196 1 
0.000355374 0.000326356 1.537e-05 0.0164629 0.000178106 0.000178106 1174.32 197 1 
0.000374465 0.00032565 8.60551e-05 0.0162322 7.45495e-05 7.45495e-05 1181.31 198 1 
3.40942e-05 0.000322778 5.95489e-07 0.0161097 6.54556e-06 6.54556e-06 1133.28 199 1 
6.42344e-05 0.000320856 4.38026e-06 0.0161355 0.000124254 0.000124254 1162.18 200 1 
8.51373e-05 0.000325784 8.88002e-05 0.0163389 -0.000324479 -0.000324479 1192.27 201 1 
0.00011372 0.000332615 2.10274e-06 0.0165555 0.000209679 0.000209679 1183.54 202 1 
0.00013274 0.000329411 8.79932e-05 0.0164975 3.25342e-05 3.25342e-05 1170.33 203 1 
0.000153669 0.000326599 7.61447e-06 0.0161252 -7.2542e-05 -7.2542e-05 1153.8 204 1 
0.000180912 0.000328283 1.08486e-06 0.0161081 0.00017196 0.00017196 1155.83 205 1 
0.000203778 0.000321921 9.26856e-06 0.0162935 0.000170708 0.000170708 1164.37 206 1 
0.00023385 0.00032645 7.75411e-07 0.0164381 5.92025e-05 5.92025e-05 1167.37 207 1 
0.000253821 0.000329758 8.09824e-06 0.0162139 0.000140556 0.000140556 1151.13 208 1 
0.000281928 0.000327047 8.96407e-05 0.0165972 0.000218625 0.000218625 1175.74 209 1 
0.000302139 0.000326891 2.43443e-06 0.0160213 0.000299096 0.000299096 1204.19 210 1 
0.000354832 0.000354158 8.8956e-06 0.0178457 -5.09489e-05 -5.09489e-05 1196.21 211 1 
0.000376079 0.000344444 8.88967e-05 0.0173918 3.6465e-05 3.6465e-05 1177.77 212 1 
3.77938e-05 0.000358029 2.51231e-06 0.0176773 8.26579e-05 8.26579e-05 1147.35 213 1 
6.04886e-05 0.00034866 2.43903e-06 0.0176554 0.000179181 0.000179181 1170.63 214 1 
8.01188e-05 0.000345477 6.94868e-07 0.0172796 0.000119012 0.000119012 1206.51 215 1 
0.000111577 0.00034211 8.79764e-05 0.0172537 -0.000101502 -0.000101502 1188.91 216 1 
0.000136658 0.000356002 2.8992e-06 0.0177462 -0.00015986 -0.00015986 1184.09 217 1 
0.0001639 0.000354069 3.41318e-06 0.0178938 0.000227768 0.000227768 1175.7 218 1 
0.000186813 0.000346358 5.36076e-06 0.0174333 -0.00028532 -0.00028532 1159.49 219 1 
0.000199254 0.000347584 4.14126e-06 0.0172866 -1.03125e-05 -1.03125e-05 1167.12 220 1 
0.000222701 0.00034575 7.60394e-06 0.0174254 7.07171e-05 7.07171e-05 1162.39 221 1 
0.000265816 0.00034927 8.96043e-05 0.0174784 -2.01784e-05 -2.01784e-05 1150.82 222 1 
0.000285736 0.000354309 4.41563e-06 0.017751 1.75404e-05 1.75404e-05 1178.31 223 1 
0.000302686 0.000352033 5.60368e-06 0.0175808 -2.97906e-05 -2.97906e-05 1195.78 224 1 
0.00032466 0.000342082 3.79828e-06 0.0170028 -0.0001654 -0.0001654 1179.84 225 1 
0.000369138 0.000365465 2.2546e-06 0.0182322 4.31832e-06 4.31832e-06 1204.85 226 1 
5.01519e-05 0.000384149 1.39097e-05 0.0193788 5.12695e-05 5.12695e-05 1170.17 227 1 
6.49312e-05 0.000376 7.02432e-06 0.0187449 0.000106201 0.000106201 1170.99 228 1 
9.05112e-05 0.00037423 8.33454e-05 0.0185685 -7.07855e-05 -7.07855e-05 1192.06 229 1 
0.00011377 0.000374734 1.35937e-05 0.0184871 -0.000242642 -0.000242642 1154.29 230 1 
0.000137641 0.000379484 1.80179e-06 0.0188973 6.99222e-05 6.99222e-05 1181.26 231 1 
0.000146523 0.000372337 1.23161e-06 0.0186476 -0.000277435 -0.000277435 1199.53 232 1 
0.000178471 0.000376234 1.38217e-05 0.0185784 3.95507e-05 3.95507e-05 1160.53 233 1 
0.000217809 0.000373846 1.76135e-08 0.0183796 8.75869e-05 8.75869e-05 1186.39 234 1 
0.000224529 0.000380031 6.70355e-06 0.0192381 5.00217e-05 5.00217e-05 1188.07 235 1 
0.000258061 0.000377357 3.76165e-06 0.0184794 3.24349e-05 3.24349e-05 1145.44 236 1 
0.00027818 0.000378723 2.93464e-06 0.0191004 -3.65443e-05 -3.65443e-05 1150.23 237 1 
0.000313575 0.000375013 8.33164e-05 0.0184756 0.000129528 0.000129528 1167.41 238 1 
0.000323905 0.000366822 6.80918e-06 0.0183724 -0.000109934 -0.000109934 1163.87 239 1 
0.000361045 0.000375636 1.97682e-06 0.0189657 -0.00014333 -0.00014333 1196.14 240 1 
4.04196e-05 0.000408319 8.82055e-05 0.0202701 0.000169035 0.000169035 1167.62 241 1 
5.78086e-05 0.000395257 8.45401e-05 0.0196951 -0.000165134 -0.000165134 1155.4 242 1 
8.62832e-05 0.000394367 3.62697e-06 0.0197041 -0.000108774 -0.000108774 1161.56 243 1 
0.00012225 0.000403508 4.28404e-06 0.0203413 7.32002e-05 7.32002e-05 1151.17 244 1 
0.000137756 0.000410855 8.04008e-05 0.0202725 0.000316088 0.000316088 1148.02 245 1 
0.000154729 0.000403108 4.04257e-07 0.0202411 -5.38556e-05 -5.38556e-05 1168.97 246 1 
0.000181468 0.000399353 5.53987e-06 0.0197744 7.82751e-05 7.82751e-05 1156.82 247 1 
0.000212912 0.00040277 6.80611e-07 0.0201803 -5.67448e-05 -5.67448e-05 1165.8 248 1 
0.000231225 0.000397776 7.81965e-06 0.0197769 2.49965e-05 2.49965e-05 1152.63 249 1 
0.000261568 0.000404207 8.41584e-05 0.0202661 0.000119911 0.000119911 1127.61 250 1 
0.00027081 0.000392828 3.34684e-06 0.0196963 0.00026373 0.00026373 1138.7 251 1 
0.000314674 0.000404181 2.80658e-06 0.0201024 5.19989e-05 5.19989e-05 1167.61 252 1 
0.000337022 0.000404404 9.24221e-06 0.0202028 -0.000111215 -0.000111215 1165.67 253 1 
0.000360666 0.000407542 6.43992e-06 0.0205141 -8.18064e-05 -8.18064e-05 1178.87 254 1 
0.000383056 0.000410168 6.3204e-06 0.0204796 6.86079e-05 6.86079e-05 1179.36 255 1 
6.53518e-05 0.00042257 1.03421e-05 0.0212063 -4.46027e-05 -4.46027e-05 1137.17 256 1 
9.56413e-05 0.000417477 9.28902e-06 0.0210349 -0.000284235 -0.000284235 1151.23 257 1 
0.000101283 0.000417699 2.65667e-06 0.021083 0.000166834 0.000166834 1155.21 258 1 
0.000143503 0.000434139 5.12037e-06 0.021723 1.76594e-06 1.76594e-06 1151.66 259 1 
0.000160994 0.000421414 8.51716e-05 0.0211938 0.000136166 0.000136166 1171.72 260 1 
0.000188668 0.000429763 3.82885e-06 0.021696 -7.47046e-05 -7.47046e-05 1170.3 261 1 
0.000213564 0.000421385 4.36796e-06 0.0209935 -0.000118351 -0.000118351 1160.57 262 1 
0.000235038 0.000421493 8.97586e-05 0.0211249 0.000124808 0.000124808 1146.97 263 1 
0.000260354 0.000433749 6.86545e-06 0.0215202 3.4595e-05 3.4595e-05 1173.13 264 1 
0.000283899 0.00043569 8.58608e-05 0.0217646 -2.35354e-05 -2.35354e-05 1185.44 265 1 
0.000297536 0.000418735 8.59458e-05 0.0207704 -0.000284533 -0.000284533 1162.54 266 1 
0.000324767 0.00042331 2.98598e-06 0.0213207 -0.00030304 -0.00030304 1150.05 267 1 
0.000356908 0.00042911 3.31599e-06 0.0212912 -9.95527e-05 -9.95527e-05 1186.85 268 1 
0.000380784 0.000429541 2.3149e-06 0.0214585 5.93477e-05 5.93477e-05 1177.62 269 1 
4.57715e-05 0.000424123 8.5527e-05 0.0212384 6.64638e-05 6.64638e-05 1170.99 270 1 
9.0044e-05 0.000450921 8.12794e-06 0.0226958 -3.36831e-05 -3.36831e-05 1145.17 271 1 
0.000113975 0.000447337 8.51781e-05 0.0221525 -0.000123831 -0.000123831 1167.47 272 1 
0.000136087 0.000459136 1.71251e-06 0.0229155 -6.95258e-05 -6.95258e-05 1166.04 273 1 
0.00014946 0.000445128 2.74941e-06 0.0223574 -0.000197697 -0.000197697 1160.11 274 1 
0.00018715 0.000456296 1.42181e-05 0.0227406 -8.30475e-05 -8.30475e-05 1153.99 275 1 
0.00020305 0.000444919 3.41211e-06 0.0222562 -1.15265e-05 -1.15265e-05 1167.34 276 1 
0.000241783 0.000448167 5.08112e-06 0.0221849 -0.000184534 -0.000184534 1189.7 277 1 
0.000260892 0.000459839 8.71932e-05 0.0228657 -4.70822e-05 -4.70822e-05 1181.58 278 1 
0.000289915 0.000457374 8.12271e-05 0.0229117 6.83341e-05 6.83341e-05 1168.81 279 1 
0.00030604 0.000444511 1.14893e-05 0.0225941 -4.82226e-05 -4.82226e-05 1160.38 280 1 
0.000344556 0.000455453 8.18274e-05 0.0228976 6.21761e-05 6.21761e-05 1147.75 281 1 
0.000344404 0.00044465 1.67141e-06 0.0225382 -0.000182027 -0.000182027 1162.18 282 1 
0.000368275 0.000439232 8.86153e-05 0.021976 1.79815e-05 1.79815e-05 1173.16 283 1 
4.48262e-05 0.000442943 1.2106e-05 0.0221781 0.000112716 0.000112716 1161.42 284 1 
6.26912e-05 0.000441649 5.1504e-06 0.022136 6.03445e-05 6.03445e-05 1147.72 285 1 
5.34805e-05 1.14407e-05 3.74146e-05 0.000608749 -2.11735e-05 -2.11735e-05 1181.64 286 1 
0.000157713 2.78814e-06 3.21018e-05 0.00037192 0.000299797 0.000299797 1251.39 287 1 
0.000167521 0.000889998 2.87693e-05 0.0446502 9.62979e-05 9.62979e-05 1229.99 288 1 
0.000188611 0.000891572 2.73594e-05 0.0442377 0.000336089 0.000336089 1238.47 289 1 
0.000151951 1.3677e-05 3.53243e-05 0.000669845 0.000101001 0.000101001 1236.5 290 1 
0.000193431 8.13977e-06 2.54594e-05 0.000438543 0.000192784 0.000192784 1201.69 291 1 
0.000197933 1.54279e-05 3.03515e-05 0.000626777 2.98574e-05 2.98574e-05 1189.29 292 1 
0.000290777 0.000893304 2.25153e-05 0.0446268 -3.4502e-05 -3.4502e-05 1204.3 293 1 
0.000292033 0.000899684 3.08898e-05 0.0446512 -6.49124e-05 -6.49124e-05 1193.68 294 1 
0.000335741 0.000891161 2.95609e-05 0.0445932 0.000230698 0.000230698 1246.43 295 1 
0.000306822 9.30401e-06 2.91056e-05 0.000463251 0.000148045 0.000148045 1227.01 296 1 
0.000342154 1.64053e-05 3.08908e-05 0.000799488 -0.000317955 -0.000317955 1218.85 297 1 
0.000407217 0.000890285 2.83051e-05 0.044531 -0.000419258 -0.000419258 1240.03 298 1 
0.000433706 0.000891474 2.93179e-05 0.0447207 1.53294e-05 1.53294e-05 1237.29 299 1 
9.29739e-05 0.000889976 2.69634e-05 0.0442702 4.20567e-05 4.20567e-05 1218.25 300 1 
5.04902e-05 3.1861e-05 2.81784e-05 0.00165859 -5.99926e-05 -5.99926e-05 1196.17 301 1 
7.31948e-05 3.52989e-05 2.61495e-05 0.00150198 -0.000165191 -0.000165191 1190.08 302 1 
9.80506e-05 3.50235e-05 2.92039e-05 0.00162982 9.08731e-05 9.08731e-05 1211.39 303 1 
0.000128866 3.64274e-05 2.73277e-05 0.00177104 0.000175417 0.000175417 1210.1 304 1 
0.000157901 3.71603e-05 1.99086e-05 0.00193741 -2.27751e-05 -2.27751e-05 1225.14 305 1 
0.000178987 3.40976e-05 2.04873e-05 0.00162425 -7.43183e-06 -7.43183e-06 1236.34 306 1 
0.00019893 4.25589e-05 3.5117e-05 0.00245076 -0.000304085 -0.000304085 1204.8 307 1 
0.000218511 4.07165e-05 2.05734e-05 0.00224073 -8.91606e-05 -8.91606e-05 1170.26 308 1 
0.00024539 3.16019e-05 2.79687e-05 0.00162957 0.000192205 0.000192205 1198 309 1 
0.000268707 3.56057e-05 2.6508e-05 0.00177934 -0.000287143 -0.000287143 1211.12 310 1 
0.000286077 3.87977e-05 3.3802e-05 0.00199141 0.000112676 0.000112676 1220.98 311 1 
0.000314196 4.09172e-05 3.53039e-05 0.00187051 -9.83831e-05 -9.83831e-05 1243.87 312 1 
0.000338291 4.24012e-05 2.77768e-05 0.00239802 -9.81158e-05 -9.81158e-05 1214.35 313 1 
2.00155e-05 3.47215e-05 2.45092e-05 0.00172769 -3.07883e-05 -3.07883e-05 1234.22 314 1 
2.71324e-05 4.08017e-05 2.71511e-05 0.00200115 7.40634e-05 7.40634e-05 1245.26 315 1 
5.80295e-05 4.94727e-05 3.35768e-05 0.00271167 -0.00023239 -0.00023239 1207.51 316 1 
8.52355e-05 6.01084e-05 3.25073e-05 0.00308065 4.45895e-05 4.45895e-05 1213.81 317 1 
0.000110398 5.43372e-05 3.25204e-05 0.0028178 -2.25971e-05 -2.25971e-05 1215.21 318 1 
0.000137773 6.41834e-05 2.49722e-05 0.0029299 0.000300683 0.000300683 1233.69 319 1 
0.000160289 6.57242e-05 2.5879e-05 0.00324329 -0.000310849 -0.000310849 1243.12 320 1 
0.000180722 5.05962e-05 3.28088e-05 0.00250121 0.000190487 0.000190487 1230.06 321 1 
0.000215769 6.45016e-05 2.72821e-05 0.00318787 1.21459e-05 1.21459e-05 1168.02 322 1 
0.000236471 6.12935e-05 2.68204e-05 0.00277041 -5.08471e-05 -5.08471e-05 1182.9 323 1 
0.000262598 5.38783e-05 2.8203e-05 0.00256716 -9.83441e-05 -9.83441e-05 1230.05 324 1 
0.00029235 5.31938e-05 2.27875e-05 0.00278402 -5.25189e-05 -5.25189e-05 1227.63 325 1 
0.000314641 6.29236e-05 2.21546e-05 0.00319477 0.000179542 0.000179542 1213.58 326 1 
0.000330651 6.01422e-05 3.08031e-05 0.00273125 -0.000158713 -0.000158713 1215.97 327 1 
0.000355509 5.60961e-05 2.6773e-05 0.00270511 0.000147762 0.000147762 1214.68 328 1 
1.68965e-05 6.58221e-05 2.35506e-05 0.00321054 -0.000225492 -0.000225492 1220.95 329 1 
4.14775e-05 5.78332e-05 2.6135e-05 0.0029467 0.000132808 0.000132808 1227.1 330 1 
9.07876e-05 7.80919e-05 3.08474e-05 0.00393293 -0.000301513 -0.000301513 1194.92 331 1 
0.000124764 9.24314e-05 2.69932e-05 0.00450137 -1.5034e-05 -1.5034e-05 1199.4 332 1 
0.000144525 7.81883e-05 2.42803e-05 0.00390627 0.000121409 0.000121409 1244.01 333 1 
0.000150097 7.85744e-05 3.27447e-05 0.00417546 0.000130084 0.000130084 1232.44 334 1 
0.000187846 7.9619e-05 2.3668e-05 0.00406377 0.000104402 0.000104402 1181.76 335 1 
0.000210145 8.86978e-05 2.77498e-05 0.00452867 -1.63374e-05 -1.63374e-05 1170.93 336 1 
0.000233049 7.39583e-05 2.18062e-05 0.00373528 0.000199112 0.000199112 1182.67 337 1 
0.000259121 8.59532e-05 2.2702e-05 0.0040009 4.97706e-05 4.97706e-05 1203.79 338 1 
0.000276893 8.15975e-05 3.23592e-05 0.00395809 -9.26628e-06 -9.26628e-06 1223.87 339 1 
0.000309701 9.08438e-05 3.24273e-05 0.00440471 3.81498e-05 3.81498e-05 1194.28 340 1 
0.000327666 8.51224e-05 1.54188e-05 0.00430982 0.000124164 0.000124164 1192.2 341 1 
0.000352664 8.25379e-05 2.82719e-05 0.00420567 -0.000263046 -0.000263046 1193.58 342 1 
1.59775e-05 8.92219e-05 2.70088e-05 0.00443052 1.09749e-05 1.09749e-05 1180.87 343 1 
3.48801e-05 8.33633e-05 2.86188e-05 0.00435476 -0.000162306 -0.000162306 1182.71 344 1 
6.37597e-05 7.98164e-05 2.34059e-05 0.00401366 8.39646e-05 8.39646e-05 1188.36 345 1 
0.000102597 9.65993e-05 3.89902e-05 0.0049835 0.00021475 0.00021475 1182.77 346 1 
0.000138362 0.000106393 2.6659e-05 0.00539524 -2.32785e-05 -2.32785e-05 1212.58 347 1 
0.000160226 0.000105088 2.76438e-05 0.00546903 0.000155116 0.000155116 1197.61 348 1 
0.000181911 0.000105561 2.67705e-05 0.00482861 1.85306e-05 1.85306e-05 1161.96 349 1 