ITEM: TIMESTEP
3000
ITEM: NUMBER OF ATOMS
2220
ITEM: BOX BOUNDS xy xz yz pp pp pp
-1.69031e-05 0.0003606 -1.69031e-05
0 0.0009015 0
0 9.015e-05 0
ITEM: ATOMS x y z vx vy vy c_rho_peratom id type 
8.42095e-05 1.23983e-05 8.92809e-05 0.000608786 -1.0703e-05 -1.0703e-05 1257.71 1 1 
0.000275358 0.000893592 8.09607e-05 0.0446774 -1.52621e-08 -1.52621e-08 1220.93 2 1 
0.00013261 9.49691e-06 5.88663e-06 0.000456054 -7.20506e-06 -7.20506e-06 1202.99 3 1 
0.000313738 0.000890079 8.98045e-05 0.0445037 -2.53702e-07 -2.53702e-07 1237.35 4 1 
0.000194445 0.000887155 8.68214e-05 0.0443555 1.26519e-05 1.26519e-05 1198.04 5 1 
0.000220438 2.21743e-05 8.40255e-05 0.00109998 -1.23712e-05 -1.23712e-05 1227.71 6 1 
7.59777e-06 0.000897154 7.26913e-06 0.0448605 8.53757e-06 8.53757e-06 1195.66 7 1 
0.000252296 1.07579e-05 8.55574e-05 0.000554451 -2.17418e-05 -2.17418e-05 1190.31 8 1 
0.000293166 1.22064e-05 4.66297e-06 0.0006091 1.65564e-05 1.65564e-05 1186.03 9 1 
0.000296128 2.61049e-05 8.05672e-05 0.00131704 -9.57796e-06 -9.57796e-06 1181.41 10 1 
0.000329369 1.44438e-05 3.13844e-06 0.000746206 -1.3382e-05 -1.3382e-05 1197.37 11 1 
8.85607e-06 1.45152e-05 6.9878e-06 0.000729988 1.20888e-05 1.20888e-05 1161.3 12 1 
0.000164974 0.000895359 3.82972e-06 0.0447851 -5.22677e-06 -5.22677e-06 1158.5 13 1 
4.49573e-05 8.09236e-06 8.99704e-06 0.000404556 -2.35333e-05 -2.35333e-05 1231.82 14 1 
9.24156e-05 0.000897316 1.47274e-05 0.0448551 7.02392e-06 7.02392e-06 1229.23 15 1 
7.44052e-05 3.81528e-05 8.25791e-05 0.00192368 1.45931e-05 1.45931e-05 1203.36 16 1 
0.000109244 3.57233e-05 7.42461e-06 0.00176231 7.5731e-06 7.5731e-06 1227.66 17 1 
0.000125165 3.17679e-05 2.58526e-06 0.00158462 1.17862e-06 1.17862e-06 1191.38 18 1 
0.000153385 5.6204e-05 8.49822e-05 0.00281031 1.38231e-05 1.38231e-05 1214.06 19 1 
0.000172233 3.15599e-05 1.4875e-05 0.00159576 -2.01593e-05 -2.01593e-05 1204.37 20 1 
0.000194361 3.61702e-05 8.98019e-05 0.00180614 2.16294e-06 2.16294e-06 1210 21 1 
0.000212907 2.93222e-05 6.92478e-06 0.00144749 9.23719e-06 9.23719e-06 1220.14 22 1 
0.000246904 2.84011e-05 8.71618e-05 0.0014336 1.30701e-06 1.30701e-06 1199.23 23 1 
0.000278876 4.63385e-05 1.43682e-05 0.00231357 5.88746e-06 5.88746e-06 1212.81 24 1 
0.000294076 4.58671e-05 7.88945e-05 0.00229311 2.00138e-05 2.00138e-05 1197.38 25 1 
0.000323434 3.17675e-05 2.83333e-06 0.00162156 -1.97446e-05 -1.97446e-05 1192.53 26 1 
0.00034029 3.39283e-05 1.65107e-05 0.001691 6.22981e-06 6.22981e-06 1228.2 27 1 
3.66192e-06 3.57858e-05 8.95148e-05 0.00178689 4.97191e-06 4.97191e-06 1193.95 28 1 
4.55946e-05 4.59433e-05 2.02461e-06 0.00228918 2.41326e-06 2.41326e-06 1211.61 29 1 
5.51888e-05 3.81018e-05 8.49091e-05 0.00190525 9.52483e-07 9.52483e-07 1199.54 30 1 
0.000105888 6.579e-05 8.33239e-05 0.00331793 -1.17386e-05 -1.17386e-05 1202.12 31 1 
0.000113172 4.34052e-05 2.68058e-06 0.00215853 1.02879e-05 1.02879e-05 1210.81 32 1 
0.000145677 6.99501e-05 2.34419e-06 0.00349619 3.01389e-05 3.01389e-05 1211.18 33 1 
0.00015603 4.63397e-05 3.42267e-07 0.00232226 9.5131e-06 9.5131e-06 1211.24 34 1 
0.00019838 6.16488e-05 5.24717e-06 0.00308149 -7.9218e-06 -7.9218e-06 1202.88 35 1 
0.000224816 6.10153e-05 6.52539e-06 0.00303914 -3.85107e-06 -3.85107e-06 1180.02 36 1 
0.000229606 5.93216e-05 2.49213e-06 0.00296016 2.19383e-05 2.19383e-05 1179.63 37 1 
0.000253572 5.11604e-05 5.9441e-06 0.00257139 -1.51903e-06 -1.51903e-06 1191.66 38 1 
0.000288946 5.36411e-05 5.58336e-07 0.00268456 -7.82159e-06 -7.82159e-06 1194.85 39 1 
0.000313959 5.54154e-05 9.86593e-06 0.00276891 8.22419e-06 8.22419e-06 1183.71 40 1 
0.000340218 6.0344e-05 5.73846e-06 0.00300417 -3.43683e-06 -3.43683e-06 1210.47 41 1 
0.000359353 6.05257e-05 8.62151e-05 0.00301679 -7.37523e-06 -7.37523e-06 1212.85 42 1 
2.40513e-05 4.73901e-05 3.57952e-06 0.00237625 -7.46405e-06 -7.46405e-06 1201.3 43 1 
3.82888e-05 5.39189e-05 5.66797e-07 0.00269639 -1.11498e-05 -1.11498e-05 1211.14 44 1 
8.13654e-05 5.69497e-05 2.28389e-06 0.00284285 2.00056e-05 2.00056e-05 1194.33 45 1 
0.00014819 8.55324e-05 5.96104e-06 0.00428326 -9.93009e-06 -9.93009e-06 1208.18 46 1 
0.000145474 7.28368e-05 8.6727e-05 0.00364919 3.25541e-05 3.25541e-05 1209.01 47 1 
0.000174142 8.10218e-05 8.8768e-05 0.00407232 -1.71954e-05 -1.71954e-05 1213.72 48 1 
0.000214402 8.58077e-05 4.03924e-06 0.00429685 -5.50349e-06 -5.50349e-06 1210.53 49 1 
0.000231126 8.28815e-05 9.05174e-06 0.00415436 1.43625e-05 1.43625e-05 1202.19 50 1 
0.000257637 8.57406e-05 7.96208e-05 0.00428817 8.26437e-07 8.26437e-07 1204.22 51 1 
0.000293491 9.00211e-05 3.48332e-06 0.004513 -1.49466e-05 -1.49466e-05 1199.53 52 1 
0.000315432 8.25056e-05 9.36518e-06 0.00412498 -5.37734e-06 -5.37734e-06 1193.51 53 1 
0.000334116 8.21459e-05 3.93752e-06 0.00410761 -4.82784e-06 -4.82784e-06 1197.32 54 1 
0.00034836 8.94444e-05 8.82884e-05 0.00448765 -1.21605e-05 -1.21605e-05 1201.66 55 1 
1.72988e-05 8.51169e-05 8.49765e-05 0.00424978 2.05731e-05 2.05731e-05 1229.54 56 1 
4.2601e-05 7.95034e-05 7.42319e-06 0.00398612 -1.44836e-05 -1.44836e-05 1202.81 57 1 
7.96652e-05 9.38151e-05 8.57679e-05 0.00469607 -1.31582e-05 -1.31582e-05 1215.34 58 1 
8.85559e-05 9.08207e-05 3.56188e-06 0.00453992 1.63307e-07 1.63307e-07 1215.02 59 1 
0.000104781 7.59624e-05 9.85637e-06 0.00379021 1.54816e-05 1.54816e-05 1208.67 60 1 
0.000156849 0.000107243 1.15618e-05 0.00535033 2.52292e-05 2.52292e-05 1224.41 61 1 
0.000185959 0.000108567 3.22061e-06 0.00544447 -1.30865e-05 -1.30865e-05 1212.32 62 1 
0.000218681 0.000110124 8.39227e-05 0.00550567 5.4471e-06 5.4471e-06 1205.52 63 1 
0.000239891 0.000100298 2.48795e-06 0.00501102 -2.23609e-05 -2.23609e-05 1215.66 64 1 
0.000276005 0.00010503 8.13536e-06 0.00525795 -2.56744e-05 -2.56744e-05 1203.79 65 1 
0.000297375 0.00011101 2.54673e-06 0.00556334 -1.90938e-06 -1.90938e-06 1222.95 66 1 
0.000305327 9.92758e-05 2.49784e-06 0.0049513 -9.39215e-07 -9.39215e-07 1214.69 67 1 
0.000346735 0.00010697 1.7013e-06 0.00534542 2.01781e-06 2.01781e-06 1193.52 68 1 
0.000349539 0.000112918 9.00334e-05 0.0056356 7.74867e-06 7.74867e-06 1191.48 69 1 
1.70264e-05 0.000100141 8.80325e-05 0.00500656 1.36545e-05 1.36545e-05 1237.29 70 1 
4.0988e-05 0.000101687 9.18105e-06 0.00510278 -3.49985e-07 -3.49985e-07 1199.52 71 1 
8.38488e-05 0.000114382 4.00142e-06 0.00572004 -1.03258e-05 -1.03258e-05 1239.08 72 1 
0.000106857 0.000109358 4.2293e-06 0.00545963 1.0635e-05 1.0635e-05 1202.37 73 1 
0.000130249 0.000111285 4.05998e-06 0.00555288 -1.94794e-05 -1.94794e-05 1195.28 74 1 
0.000145313 0.000105453 6.3265e-06 0.00529386 -1.22048e-05 -1.22048e-05 1215.05 75 1 
0.000186819 0.000120421 7.86293e-06 0.00602065 -1.05662e-05 -1.05662e-05 1208.36 76 1 
0.000232717 0.00012656 8.82939e-05 0.00635165 -1.44761e-05 -1.44761e-05 1189.99 77 1 
0.000253401 0.000129512 9.62785e-06 0.00647408 3.92762e-06 3.92762e-06 1191.43 78 1 
0.000286447 0.000129371 6.24434e-06 0.00647744 3.0088e-05 3.0088e-05 1213.99 79 1 
0.000305425 0.000134145 4.92069e-06 0.00670891 7.12532e-06 7.12532e-06 1180.96 80 1 
0.000326723 0.000131716 3.32727e-06 0.00658099 3.69232e-06 3.69232e-06 1164.97 81 1 
-1.72303e-06 0.000139088 7.52853e-06 0.0069472 -1.15026e-05 -1.15026e-05 1198.54 82 1 
2.21197e-05 0.000130134 8.9492e-05 0.00650091 -7.01469e-06 -7.01469e-06 1223.68 83 1 
5.22021e-05 0.000129517 1.18968e-05 0.00648007 -5.57095e-06 -5.57095e-06 1227.11 84 1 
5.51096e-05 0.000129451 9.7561e-07 0.00646845 -8.26838e-06 -8.26838e-06 1227.04 85 1 
8.43669e-05 0.000132015 8.8095e-05 0.00660339 -2.46792e-05 -2.46792e-05 1224.44 86 1 
0.000107143 0.000130042 2.89835e-06 0.00650927 6.25813e-06 6.25813e-06 1197.28 87 1 
0.000146592 0.000131682 8.85764e-05 0.00658417 -1.84502e-05 -1.84502e-05 1181.17 88 1 
0.000167613 0.000128383 8.20183e-05 0.00641209 1.41355e-05 1.41355e-05 1205.55 89 1 
0.000218488 0.000141848 1.99426e-06 0.00706878 1.44662e-05 1.44662e-05 1202.8 90 1 
0.000237003 0.000148789 1.35835e-05 0.00744179 -6.01343e-06 -6.01343e-06 1191.45 91 1 
0.000281228 0.000158244 8.64189e-05 0.0079013 -3.67478e-06 -3.67478e-06 1193.52 92 1 
0.00028796 0.000161597 5.97841e-06 0.00806291 -2.99253e-06 -2.99253e-06 1187.94 93 1 
0.00031677 0.000152312 4.14073e-07 0.00760779 2.15493e-05 2.15493e-05 1160.69 94 1 
0.000335241 0.000149553 2.64166e-06 0.00744662 -5.60526e-06 -5.60526e-06 1179.64 95 1 
1.19032e-05 0.000144682 3.25779e-06 0.00724044 -2.51537e-05 -2.51537e-05 1212.87 96 1 
4.30384e-05 0.000166456 4.8528e-06 0.00830643 -6.23363e-06 -6.23363e-06 1202.96 97 1 
5.08116e-05 0.000153517 8.49464e-05 0.00769579 -8.1754e-06 -8.1754e-06 1198.16 98 1 
6.93883e-05 0.000154257 8.54223e-05 0.00770988 -2.65051e-06 -2.65051e-06 1197.04 99 1 
0.000102768 0.000155855 8.70412e-05 0.00776538 1.054e-05 1.054e-05 1169.99 100 1 
0.00012374 0.000149121 4.16248e-06 0.00747601 -1.92268e-05 -1.92268e-05 1175.17 101 1 
0.000141154 0.000156288 7.94003e-05 0.00782599 -1.01395e-05 -1.01395e-05 1187.73 102 1 
0.000166188 0.000154248 8.70774e-05 0.00769738 -4.20487e-06 -4.20487e-06 1192.87 103 1 
0.000190968 0.00015013 7.97011e-05 0.00748946 -5.86853e-06 -5.86853e-06 1198.24 104 1 
0.000226945 0.000161191 8.8266e-05 0.00804939 3.26094e-05 3.26094e-05 1204.45 105 1 
0.000274319 0.000178165 7.21338e-06 0.00890472 4.93053e-07 4.93053e-07 1172.71 106 1 
0.000308348 0.000174714 8.35276e-05 0.0087726 -9.65341e-07 -9.65341e-07 1184.91 107 1 
0.000333549 0.000177904 8.63935e-07 0.00891038 5.47739e-06 5.47739e-06 1205.67 108 1 
0.000344014 0.000178255 8.52306e-05 0.00891463 7.94143e-06 7.94143e-06 1200.08 109 1 
2.22846e-05 0.000180617 1.16996e-05 0.00903325 -4.93709e-06 -4.93709e-06 1194.39 110 1 
4.6263e-05 0.000186983 6.12419e-06 0.00934447 7.07478e-06 7.07478e-06 1197.54 111 1 
8.37052e-05 0.000187504 6.65333e-06 0.00936434 -8.3986e-06 -8.3986e-06 1185.93 112 1 
9.21394e-05 0.000178467 1.36493e-06 0.00893009 -5.99606e-06 -5.99606e-06 1181.54 113 1 
0.000114024 0.000188489 8.20892e-05 0.00941736 -4.21103e-07 -4.21103e-07 1206.03 114 1 
0.000143945 0.00018503 8.42463e-05 0.00925874 1.3906e-06 1.3906e-06 1204.34 115 1 
0.000159227 0.000178765 1.18023e-05 0.00893176 3.59503e-06 3.59503e-06 1175.66 116 1 
0.000186054 0.000170427 1.01597e-05 0.00851505 2.17192e-06 2.17192e-06 1212.59 117 1 
0.000217406 0.000185837 8.75421e-05 0.0092922 -3.3373e-05 -3.3373e-05 1200.99 118 1 
0.000243983 0.000181517 1.34095e-05 0.00907269 6.1115e-06 6.1115e-06 1166.59 119 1 
0.0002436 0.000178229 7.20835e-06 0.00892068 3.80983e-06 3.80983e-06 1180.21 120 1 
0.000322971 0.000204197 8.74869e-05 0.010181 2.60905e-05 2.60905e-05 1199.38 121 1 
0.000340224 0.000202257 1.06157e-05 0.010103 3.54131e-06 3.54131e-06 1209 122 1 
1.06376e-05 0.000204305 1.88683e-06 0.010217 4.14012e-06 4.14012e-06 1187.37 123 1 
4.0916e-05 0.000210663 3.55373e-07 0.0105472 -7.07884e-06 -7.07884e-06 1190.3 124 1 
6.98286e-05 0.000211486 1.32619e-05 0.0105807 -1.60285e-06 -1.60285e-06 1172.47 125 1 
7.18189e-05 0.000205724 1.13456e-05 0.0102973 3.30877e-06 3.30877e-06 1174.07 126 1 
0.000121019 0.000211247 8.92021e-05 0.0105371 6.32845e-06 6.32845e-06 1194.01 127 1 
0.00011496 0.000190732 8.8731e-05 0.00955989 2.1234e-05 2.1234e-05 1205.3 128 1 
0.000156096 0.000202537 1.7107e-05 0.0101485 -1.52099e-05 -1.52099e-05 1168.24 129 1 
0.000181597 0.000210143 4.35637e-06 0.010522 -1.31392e-05 -1.31392e-05 1196.81 130 1 
0.00020716 0.000205541 8.76226e-05 0.0103046 1.16063e-05 1.16063e-05 1195.67 131 1 
0.000220192 0.000205851 8.3438e-05 0.0102847 -1.00386e-05 -1.00386e-05 1201.81 132 1 
0.000255378 0.000204786 4.34453e-06 0.0102106 2.29849e-06 2.29849e-06 1165.93 133 1 
0.000293463 0.000220588 3.23829e-06 0.0110371 1.14801e-05 1.14801e-05 1184.85 134 1 
0.000307016 0.000203095 8.18139e-05 0.0101541 -1.28027e-05 -1.28027e-05 1195.78 135 1 
6.26235e-06 0.000233917 4.37785e-06 0.0116813 -1.01353e-06 -1.01353e-06 1189.27 136 1 
2.05281e-05 0.000227497 1.33622e-05 0.0113728 -2.73292e-05 -2.73292e-05 1174.34 137 1 
5.13409e-05 0.000227002 2.87639e-07 0.0113658 -8.95206e-06 -8.95206e-06 1192.44 138 1 
8.54929e-05 0.000238377 2.07293e-06 0.011952 -4.70342e-06 -4.70342e-06 1195.46 139 1 
0.000111465 0.000232801 8.9149e-06 0.0116173 2.06271e-06 2.06271e-06 1195.01 140 1 
0.000118647 0.000221256 8.50405e-05 0.0110734 3.25607e-06 3.25607e-06 1189.57 141 1 
0.000145761 0.000228778 3.06969e-06 0.0114309 -1.33334e-05 -1.33334e-05 1177.23 142 1 
0.000174318 0.000231754 3.79983e-07 0.0116044 -6.71446e-08 -6.71446e-08 1186.97 143 1 
0.000177375 0.000219553 8.76642e-06 0.0109673 8.19044e-06 8.19044e-06 1191.86 144 1 
0.000210487 0.000225631 8.64413e-05 0.0112578 -1.12012e-06 -1.12012e-06 1177.62 145 1 
0.000240183 0.000230582 3.27449e-06 0.0115317 4.64805e-06 4.64805e-06 1196.96 146 1 
0.000260271 0.000226266 6.338e-06 0.0113207 -2.72732e-05 -2.72732e-05 1197.27 147 1 
0.000298061 0.000227002 7.11729e-06 0.0113434 -4.05868e-06 -4.05868e-06 1169.98 148 1 
0.000305972 0.000216686 8.51392e-05 0.0108259 -1.26145e-05 -1.26145e-05 1190.3 149 1 
0.000336201 0.000230916 8.70349e-05 0.0115545 -8.37822e-06 -8.37822e-06 1197.71 150 1 
3.97282e-05 0.000260148 5.63465e-06 0.0129978 2.28973e-05 2.28973e-05 1172.95 151 1 
6.2535e-05 0.000258749 5.1696e-06 0.0129208 1.62313e-05 1.62313e-05 1201.14 152 1 
9.17765e-05 0.000254239 8.22152e-05 0.0127046 -6.77372e-06 -6.77372e-06 1196.56 153 1 
9.80928e-05 0.000250285 8.80651e-05 0.0124987 8.701e-06 8.701e-06 1198.51 154 1 
0.000128161 0.000249107 8.78204e-05 0.0124706 2.73472e-06 2.73472e-06 1183.95 155 1 
0.000161624 0.000256877 8.90778e-06 0.0128638 -1.41514e-05 -1.41514e-05 1171.46 156 1 
0.000197392 0.000264078 8.4489e-05 0.0131832 1.42396e-05 1.42396e-05 1182.49 157 1 
0.000215818 0.000265791 1.80194e-06 0.0133007 1.6395e-06 1.6395e-06 1201.86 158 1 
0.000227271 0.000245822 7.53375e-06 0.0122999 -1.16825e-05 -1.16825e-05 1210.02 159 1 
0.000249811 0.000250159 7.8986e-05 0.0124955 -5.17981e-07 -5.17981e-07 1178.36 160 1 
0.000293055 0.000261613 4.47795e-06 0.0130857 -2.58631e-06 -2.58631e-06 1167.09 161 1 
0.000324237 0.00026716 8.55113e-05 0.0133456 1.29215e-05 1.29215e-05 1196.07 162 1 
0.000336105 0.000255221 7.59964e-06 0.0127491 1.54675e-05 1.54675e-05 1206.4 163 1 
0.000347341 0.000253217 8.08596e-06 0.0126642 -9.67511e-06 -9.67511e-06 1213.96 164 1 
1.90122e-05 0.000249469 2.70927e-06 0.0124687 -8.37607e-06 -8.37607e-06 1182.41 165 1 
8.53489e-05 0.000284493 8.05342e-05 0.0142108 -2.24304e-06 -2.24304e-06 1185.21 166 1 
9.70904e-05 0.000273749 5.99722e-06 0.0136874 -1.44426e-05 -1.44426e-05 1188.95 167 1 
0.000131682 0.000281384 7.38775e-06 0.014058 -1.45361e-06 -1.45361e-06 1198.65 168 1 
0.000137223 0.000265427 5.38272e-06 0.0132836 7.73597e-06 7.73597e-06 1190.55 169 1 
0.000173064 0.000281734 8.453e-06 0.0140716 -1.6574e-05 -1.6574e-05 1171.67 170 1 
0.000196087 0.000274781 6.21297e-06 0.0137417 1.07493e-05 1.07493e-05 1198.59 171 1 
0.000210308 0.000267216 8.37768e-05 0.0133419 -6.18217e-06 -6.18217e-06 1196.38 172 1 
0.000243617 0.000280244 1.06836e-05 0.0140233 4.40723e-06 4.40723e-06 1204.63 173 1 
0.000281764 0.000284743 2.89541e-07 0.0142358 1.25292e-05 1.25292e-05 1193.53 174 1 
0.000296851 0.000282291 4.09342e-06 0.0141236 4.17397e-06 4.17397e-06 1186.02 175 1 
0.000331125 0.000277066 1.60113e-05 0.0138421 -1.02264e-05 -1.02264e-05 1176.05 176 1 
0.000341676 0.000271942 8.80761e-05 0.013606 -1.39591e-07 -1.39591e-07 1178.62 177 1 
1.115e-05 0.000290003 4.36024e-07 0.014491 -1.3163e-06 -1.3163e-06 1148.54 178 1 
4.2488e-05 0.000284767 3.29878e-06 0.0142638 -6.74028e-06 -6.74028e-06 1189.5 179 1 
4.51693e-05 0.000277387 8.53698e-05 0.0138752 -1.82693e-05 -1.82693e-05 1190.58 180 1 
0.000128933 0.000308758 5.41935e-06 0.0154026 2.05973e-05 2.05973e-05 1198.06 181 1 
0.0001213 0.000286149 8.90306e-05 0.0143058 8.83022e-06 8.83022e-06 1194.03 182 1 
0.000168421 0.00030734 8.43427e-06 0.0153544 2.30965e-05 2.30965e-05 1171.58 183 1 
0.000185514 0.000302362 3.06881e-06 0.0151051 1.15093e-05 1.15093e-05 1201.28 184 1 
0.000212942 0.000295127 1.72503e-05 0.0147314 1.75231e-05 1.75231e-05 1156.53 185 1 
0.000217862 0.000298882 8.36015e-05 0.0149353 -1.89777e-06 -1.89777e-06 1167.29 186 1 
0.000245036 0.000300492 8.84766e-05 0.0150138 -1.71943e-05 -1.71943e-05 1186.09 187 1 
0.000275704 0.000295371 7.89939e-05 0.0147645 4.48847e-06 4.48847e-06 1183.03 188 1 
0.000303548 0.00030353 1.57163e-05 0.0151585 2.08554e-05 2.08554e-05 1162.36 189 1 
0.000333268 0.000299677 8.63085e-05 0.0149756 2.67205e-05 2.67205e-05 1183.49 190 1 
5.99434e-06 0.000308574 1.03844e-06 0.0154273 3.68341e-05 3.68341e-05 1175.98 191 1 
2.52494e-05 0.000307178 8.7871e-05 0.0153746 1.22508e-05 1.22508e-05 1179.35 192 1 
6.0284e-05 0.000313565 9.91361e-06 0.0156809 -3.75472e-05 -3.75472e-05 1199.64 193 1 
6.35684e-05 0.000297245 6.22472e-07 0.0148603 -1.10397e-05 -1.10397e-05 1192.53 194 1 
0.000106613 0.000312743 1.45538e-06 0.0156451 8.45065e-06 8.45065e-06 1173.61 195 1 
0.000150288 0.000333435 8.71177e-05 0.0166812 -2.01535e-05 -2.01535e-05 1194.2 196 1 
0.000183414 0.000330746 1.39668e-05 0.016539 1.28248e-05 1.28248e-05 1159.35 197 1 
0.000200776 0.000324556 8.86938e-05 0.016222 -9.44031e-06 -9.44031e-06 1156.26 198 1 
0.000217977 0.00032332 8.87159e-05 0.0161783 -1.80583e-05 -1.80583e-05 1149.56 199 1 
0.000246921 0.000326238 2.15266e-06 0.0163079 -1.71044e-05 -1.71044e-05 1166.28 200 1 
0.000275865 0.000324205 2.28691e-06 0.0162172 -2.14323e-05 -2.14323e-05 1147.56 201 1 
0.000308053 0.000333733 1.94755e-06 0.0166779 -1.16154e-06 -1.16154e-06 1177.99 202 1 
0.000321746 0.000327697 8.32498e-05 0.016389 6.64531e-06 6.64531e-06 1191.55 203 1 
0.000339754 0.000331002 6.42242e-06 0.0165511 -5.32158e-06 -5.32158e-06 1201.85 204 1 
8.95268e-07 0.00032502 9.48471e-07 0.0162502 9.26943e-06 9.26943e-06 1184.21 205 1 
3.48419e-05 0.000324822 6.69407e-06 0.0162347 -3.20744e-06 -3.20744e-06 1164.24 206 1 
5.47324e-05 0.000321952 8.63433e-06 0.016093 1.23332e-05 1.23332e-05 1183.29 207 1 
8.36571e-05 0.000333116 1.36552e-05 0.0166586 -9.98115e-06 -9.98115e-06 1177.43 208 1 
0.000110129 0.00032756 8.61669e-05 0.0163694 -1.00429e-05 -1.00429e-05 1170.21 209 1 
0.000131705 0.000329407 4.25797e-06 0.0164796 -1.42783e-05 -1.42783e-05 1200.41 210 1 
0.000200611 0.000348956 1.13941e-05 0.0174512 1.88099e-05 1.88099e-05 1204.26 211 1 
0.000213916 0.000346981 3.126e-06 0.0173646 -5.20263e-06 -5.20263e-06 1194.81 212 1 
0.00024078 0.000356415 3.39707e-07 0.0178059 1.55208e-05 1.55208e-05 1170.89 213 1 
0.000260842 0.000351203 8.96733e-05 0.017567 -7.45322e-06 -7.45322e-06 1156.07 214 1 
0.000280411 0.000347455 8.79594e-05 0.0173744 -2.57896e-06 -2.57896e-06 1153.24 215 1 
0.00031132 0.000349452 8.4079e-07 0.0174885 1.77487e-05 1.77487e-05 1180.23 216 1 
0.000333523 0.000357316 4.57336e-06 0.0178685 8.15101e-06 8.15101e-06 1177.89 217 1 
3.66704e-06 0.000349955 6.07823e-06 0.017508 1.88111e-07 1.88111e-07 1172.37 218 1 
2.3389e-05 0.00034899 7.40136e-07 0.0174382 8.1243e-06 8.1243e-06 1169.88 219 1 
3.8387e-05 0.000352723 6.92969e-06 0.017622 -3.00249e-07 -3.00249e-07 1163.34 220 1 
6.86588e-05 0.000348557 8.0081e-06 0.0174348 -1.02508e-05 -1.02508e-05 1184.14 221 1 
0.000101346 0.000345712 8.37365e-05 0.0172666 1.49339e-05 1.49339e-05 1148.36 222 1 
0.000130025 0.000353922 5.84851e-06 0.0177023 8.67937e-06 8.67937e-06 1191.79 223 1 
0.000146486 0.000354786 5.83788e-06 0.0177506 4.80961e-06 4.80961e-06 1196.35 224 1 
0.000159134 0.000341261 1.99282e-06 0.0170535 -8.97813e-06 -8.97813e-06 1182.62 225 1 
0.000221815 0.000366259 2.54739e-06 0.0183111 -4.35395e-06 -4.35395e-06 1182.44 226 1 
0.000273569 0.000385013 1.21947e-05 0.0192444 -4.60217e-06 -4.60217e-06 1205.13 227 1 
0.000281118 0.000377265 4.97782e-06 0.0188508 -4.55404e-07 -4.55404e-07 1205.7 228 1 
0.000304219 0.000377783 8.21997e-05 0.0189054 -2.73205e-05 -2.73205e-05 1201.7 229 1 
0.000329547 0.000375119 1.76317e-05 0.0187775 -1.52121e-05 -1.52121e-05 1166.67 230 1 
-2.40223e-06 0.000380046 5.84486e-06 0.0190136 8.85143e-06 8.85143e-06 1162.74 231 1 
1.55338e-06 0.000373175 8.95409e-05 0.0186565 1.32956e-05 1.32956e-05 1175.18 232 1 
3.25582e-05 0.000372624 1.40493e-05 0.0186467 -1.57947e-05 -1.57947e-05 1177.56 233 1 
6.97667e-05 0.000375236 4.48555e-06 0.0187272 2.42988e-05 2.42988e-05 1164.81 234 1 
8.68226e-05 0.000378674 6.81393e-06 0.0189284 1.57556e-05 1.57556e-05 1159.42 235 1 
0.000118714 0.000378814 4.42224e-06 0.0189454 -9.76963e-07 -9.76963e-07 1192.33 236 1 
0.000135554 0.000379629 8.85799e-05 0.0189873 3.34011e-06 3.34011e-06 1221.42 237 1 
0.000169208 0.000376702 8.21554e-05 0.0188368 -2.24813e-05 -2.24813e-05 1168.07 238 1 
0.00017394 0.000369783 7.11956e-06 0.0185017 -1.3313e-06 -1.3313e-06 1169.07 239 1 
0.000219707 0.000377362 5.23361e-06 0.018886 1.5573e-05 1.5573e-05 1164.9 240 1 
0.000275737 0.000409085 8.20792e-05 0.0204347 1.01245e-06 1.01245e-06 1180.07 241 1 
0.000282573 0.000397098 8.30375e-05 0.0198674 1.45471e-05 1.45471e-05 1195.66 242 1 
0.000314372 0.00039997 1.9768e-06 0.0199828 1.42156e-05 1.42156e-05 1186.68 243 1 
0.000352491 0.000402112 7.66207e-06 0.0200914 -1.75058e-06 -1.75058e-06 1141.78 244 1 
1.07657e-05 0.000409538 7.50876e-05 0.020484 4.20772e-06 4.20772e-06 1154.9 245 1 
2.16744e-05 0.00040318 3.82873e-08 0.0201643 -9.53381e-06 -9.53381e-06 1174.66 246 1 
4.82969e-05 0.000395719 1.05039e-07 0.0198029 2.39767e-05 2.39767e-05 1166.81 247 1 
8.94389e-05 0.000406124 9.00195e-05 0.020309 -2.40472e-05 -2.40472e-05 1165.5 248 1 
0.000101133 0.000394143 4.03713e-06 0.01972 -8.22744e-06 -8.22744e-06 1173.42 249 1 
0.000126057 0.000400238 8.50389e-05 0.0200019 -9.76479e-06 -9.76479e-06 1171.49 250 1 
0.000133937 0.000397615 5.47637e-06 0.019864 9.22729e-06 9.22729e-06 1190.88 251 1 
0.00018453 0.000399941 3.26698e-06 0.020014 -1.05584e-05 -1.05584e-05 1186.75 252 1 
0.000207689 0.000403009 1.26874e-05 0.0201442 8.58617e-07 8.58617e-07 1179.16 253 1 
0.000231519 0.000405843 1.1427e-05 0.0202886 -1.2852e-05 -1.2852e-05 1158.8 254 1 
0.000257596 0.000408717 4.37442e-06 0.0204597 1.6493e-05 1.6493e-05 1182.95 255 1 
0.00031253 0.000421482 8.85765e-06 0.0210944 5.3565e-06 5.3565e-06 1169.62 256 1 
0.000328442 0.000413673 4.7227e-06 0.0206643 2.38969e-06 2.38969e-06 1170.65 257 1 
0.000347337 0.000421059 3.55853e-06 0.0210676 -2.94079e-05 -2.94079e-05 1149.91 258 1 
3.65614e-05 0.000434727 8.9895e-05 0.0217307 -9.87288e-07 -9.87288e-07 1190.86 259 1 
3.99652e-05 0.000424345 8.85354e-05 0.0212155 3.51447e-06 3.51447e-06 1189.35 260 1 
6.94326e-05 0.000426422 8.80624e-05 0.021343 5.20207e-06 5.20207e-06 1177.16 261 1 
9.29803e-05 0.000422778 9.44371e-06 0.0211329 1.61969e-05 1.61969e-05 1176.62 262 1 
0.000119004 0.000421906 3.90886e-06 0.0211013 1.01203e-05 1.01203e-05 1149.83 263 1 
0.000147729 0.000430711 1.16773e-05 0.0215425 1.13398e-06 1.13398e-06 1167.39 264 1 
0.000173588 0.000440348 8.33362e-05 0.0220255 -9.01716e-06 -9.01716e-06 1172.12 265 1 
0.000177147 0.000415555 8.89598e-05 0.020773 1.00125e-05 1.00125e-05 1177.56 266 1 
0.00021301 0.000423591 1.10594e-06 0.0211722 2.08993e-06 2.08993e-06 1170.89 267 1 
0.000241734 0.000430536 8.93929e-05 0.0215394 2.01513e-05 2.01513e-05 1184.37 268 1 
0.000263272 0.000430462 3.68849e-06 0.0215183 -3.15379e-06 -3.15379e-06 1181.85 269 1 
0.000292398 0.000424033 8.62385e-05 0.0212167 -1.53975e-05 -1.53975e-05 1163.77 270 1 
0.000345673 0.000450395 9.01663e-06 0.022521 -9.85551e-06 -9.85551e-06 1185.17 271 1 
6.99224e-06 0.000447145 1.76523e-06 0.022347 -8.75983e-06 -8.75983e-06 1166.56 272 1 
3.62828e-05 0.000459046 7.44273e-06 0.0229415 -2.46777e-06 -2.46777e-06 1189.93 273 1 
4.16421e-05 0.000440997 4.41218e-06 0.0220446 -6.07806e-06 -6.07806e-06 1194.18 274 1 
9.02363e-05 0.000456499 1.5003e-05 0.0228016 -1.27529e-05 -1.27529e-05 1168.08 275 1 
9.91451e-05 0.000443497 1.75997e-06 0.022177 -7.49944e-06 -7.49944e-06 1159.15 276 1 
0.000141976 0.0004473 4.2474e-06 0.0223597 -4.45334e-06 -4.45334e-06 1187.74 277 1 
0.000167339 0.0004549 4.03392e-06 0.0227193 8.94153e-06 8.94153e-06 1156.14 278 1 
0.000189276 0.00046139 7.89639e-05 0.0230673 -7.92235e-06 -7.92235e-06 1170.86 279 1 
0.000202938 0.000448204 8.66892e-06 0.0224046 -1.27533e-05 -1.27533e-05 1178.42 280 1 
0.000241246 0.000450403 8.05651e-05 0.0225278 1.37043e-05 1.37043e-05 1174.66 281 1 
0.000233418 0.000438769 2.53548e-06 0.0219345 3.17503e-06 3.17503e-06 1190.23 282 1 
0.000264885 0.000439545 2.80518e-06 0.0220061 1.53e-05 1.53e-05 1173.97 283 1 
0.000304211 0.000443849 1.01249e-05 0.0222042 8.20454e-06 8.20454e-06 1168.92 284 1 
0.000310201 0.000446386 9.81425e-06 0.0223387 9.57349e-06 9.57349e-06 1172.58 285 1 
8.06618e-05 1.15465e-05 4.09142e-05 0.00058959 -1.64688e-05 -1.64688e-05 1161.61 286 1 
0.000211038 0.000899274 3.16457e-05 0.0449611 1.12519e-05 1.12519e-05 1251.78 287 1 
0.000306177 0.000883625 2.63884e-05 0.044154 -2.30331e-06 -2.30331e-06 1208.64 288 1 
0.000321038 0.000880723 3.17031e-05 0.0440394 -1.26904e-05 -1.26904e-05 1195.21 289 1 
0.000172668 1.19088e-05 3.67714e-05 0.000613161 -5.55909e-06 -5.55909e-06 1138.25 290 1 
0.000226514 9.17633e-06 2.55112e-05 0.000470739 -6.74873e-06 -6.74873e-06 1241.35 291 1 
0.000225314 2.22489e-05 2.69501e-05 0.00112741 -2.93572e-06 -2.93572e-06 1223.57 292 1 
6.00874e-05 0.000892565 2.50615e-05 0.0446305 8.3464e-06 8.3464e-06 1167.57 293 1 
3.80236e-06 0.000900195 3.12113e-05 0.0449788 1.83051e-06 1.83051e-06 1245.79 294 1 
0.000107863 0.000891735 2.70352e-05 0.0445838 1.79134e-05 1.79134e-05 1232.25 295 1 
0.000331104 1.2919e-05 2.94269e-05 0.000634057 4.1979e-05 4.1979e-05 1210.07 296 1 
3.0523e-06 2.14257e-05 3.04965e-05 0.00106768 2.7189e-06 2.7189e-06 1211.59 297 1 
0.000176817 0.000889725 3.09942e-05 0.0444978 -8.54378e-06 -8.54378e-06 1141.54 298 1 
0.000210884 0.000892143 3.0516e-05 0.04459 4.98369e-06 4.98369e-06 1248.47 299 1 
0.000221101 0.000890993 2.6439e-05 0.0445695 8.18995e-06 8.18995e-06 1251.86 300 1 
7.18319e-05 2.86891e-05 3.03563e-05 0.00144378 -1.24566e-05 -1.24566e-05 1218.34 301 1 
9.78484e-05 3.25778e-05 2.55239e-05 0.00163938 1.57e-05 1.57e-05 1221.83 302 1 
0.0001261 3.2024e-05 3.31077e-05 0.00160131 -1.9726e-05 -1.9726e-05 1191.5 303 1 
0.000154686 3.78949e-05 3.09669e-05 0.00189166 1.41563e-05 1.41563e-05 1183.31 304 1 
0.000177552 3.38054e-05 1.62345e-05 0.00167011 -4.55774e-06 -4.55774e-06 1207.39 305 1 
0.000199917 3.16447e-05 2.04974e-05 0.00157633 -9.91936e-06 -9.91936e-06 1208.3 306 1 
0.000225091 4.09883e-05 3.26412e-05 0.00205352 1.74152e-05 1.74152e-05 1196 307 1 
0.000241619 3.76925e-05 1.88608e-05 0.00188346 -8.59425e-06 -8.59425e-06 1187.25 308 1 
0.000268047 3.11588e-05 2.94852e-05 0.00157207 -5.9172e-06 -5.9172e-06 1203.08 309 1 
0.000294377 2.71313e-05 2.28777e-05 0.00136739 -2.5675e-05 -2.5675e-05 1194.24 310 1 
0.000308707 3.51514e-05 3.50952e-05 0.00177412 1.56289e-06 1.56289e-06 1212.4 311 1 
0.000341584 4.08317e-05 3.83176e-05 0.00201144 2.59602e-05 2.59602e-05 1232.89 312 1 
5.14758e-06 4.46115e-05 2.50851e-05 0.00223327 -9.17631e-06 -9.17631e-06 1209.05 313 1 
4.85277e-05 3.56778e-05 2.53922e-05 0.00176435 8.33055e-06 8.33055e-06 1235.95 314 1 
6.07497e-05 4.626e-05 2.44052e-05 0.00232436 -6.52508e-06 -6.52508e-06 1239.3 315 1 
9.19505e-05 4.8091e-05 3.36897e-05 0.00238483 3.33411e-06 3.33411e-06 1205.47 316 1 
0.000117941 5.74079e-05 3.38723e-05 0.00286265 2.34624e-05 2.34624e-05 1206.75 317 1 
0.000146999 5.27657e-05 3.15028e-05 0.00262497 7.01747e-06 7.01747e-06 1193.47 318 1 
0.00017491 6.31672e-05 2.323e-05 0.00315546 -1.41566e-05 -1.41566e-05 1215.92 319 1 
0.000194046 6.55432e-05 2.33118e-05 0.00326335 -6.76864e-06 -6.76864e-06 1228.5 320 1 
0.000204802 5.05802e-05 3.4275e-05 0.00255488 8.77129e-06 8.77129e-06 1226.2 321 1 
0.000259606 6.90462e-05 2.79537e-05 0.00347181 -2.45837e-05 -2.45837e-05 1218.07 322 1 
0.000267263 5.83545e-05 2.69497e-05 0.00289941 -1.72167e-06 -1.72167e-06 1220.9 323 1 
0.000292075 5.63616e-05 2.71624e-05 0.00281587 -8.81559e-06 -8.81559e-06 1215.19 324 1 
0.000324512 5.21607e-05 2.63045e-05 0.00260897 5.15864e-06 5.15864e-06 1219.39 325 1 
0.000346881 6.61676e-05 2.18684e-05 0.00330802 8.48611e-06 8.48611e-06 1207.89 326 1 
2.15474e-06 5.89956e-05 2.96624e-05 0.00293609 -1.84686e-05 -1.84686e-05 1205.74 327 1 
2.8287e-05 5.98163e-05 2.99923e-05 0.00296669 2.06165e-05 2.06165e-05 1219.64 328 1 
4.85635e-05 6.27764e-05 2.03005e-05 0.00315078 -2.78011e-05 -2.78011e-05 1225.65 329 1 
7.98097e-05 6.22335e-05 2.64659e-05 0.00313576 -3.00792e-06 -3.00792e-06 1205.92 330 1 
0.000136504 7.37714e-05 3.36811e-05 0.00368634 -2.3228e-05 -2.3228e-05 1188.68 331 1 
0.000174294 9.23992e-05 2.9996e-05 0.0046245 7.67469e-06 7.67469e-06 1205.61 332 1 
0.000194715 8.49764e-05 2.0339e-05 0.00423594 -5.55744e-06 -5.55744e-06 1215.19 333 1 
0.000194109 7.83582e-05 3.64265e-05 0.00393517 -1.33792e-05 -1.33792e-05 1220.91 334 1 
0.000235362 7.8128e-05 2.73365e-05 0.00390404 -2.32479e-06 -2.32479e-06 1173.54 335 1 
0.000256438 8.46155e-05 2.68152e-05 0.00423064 1.99847e-05 1.99847e-05 1207.37 336 1 
0.000278019 7.91048e-05 2.01695e-05 0.00396847 -1.49605e-05 -1.49605e-05 1204.81 337 1 
0.00030347 8.19949e-05 2.10374e-05 0.00410322 5.53834e-06 5.53834e-06 1196.08 338 1 
0.000321392 8.4266e-05 3.67389e-05 0.00422197 -3.38157e-06 -3.38157e-06 1215.31 339 1 
2.65023e-06 9.10141e-05 3.46574e-05 0.00452665 -7.27777e-06 -7.27777e-06 1188.2 340 1 
1.35832e-05 8.77515e-05 1.17801e-05 0.00438844 -5.33826e-06 -5.33826e-06 1224.12 341 1 
3.99492e-05 8.11862e-05 2.99311e-05 0.00406175 3.70177e-06 3.70177e-06 1208.8 342 1 
6.51983e-05 8.46939e-05 2.59418e-05 0.00424295 -1.28801e-05 -1.28801e-05 1189.67 343 1 
8.48781e-05 8.77486e-05 2.65153e-05 0.00439029 6.18956e-06 6.18956e-06 1194.48 344 1 
0.000107704 8.41673e-05 2.40158e-05 0.00419213 -3.70183e-06 -3.70183e-06 1206.6 345 1 
0.000157046 9.57537e-05 3.83391e-05 0.00478055 1.24429e-05 1.24429e-05 1184.38 346 1 
0.000198101 0.000108694 2.99989e-05 0.0054182 2.2597e-06 2.2597e-06 1195.22 347 1 
0.000217224 0.000104055 2.60676e-05 0.00520534 -6.32935e-06 -6.32935e-06 1182.53 348 1 