ITEM: TIMESTEP
1400
ITEM: NUMBER OF ATOMS
2220
ITEM: BOX BOUNDS xy xz yz pp pp pp
-3.19281e-05 0.0003606 -3.19281e-05
0 0.0009015 0
0 9.015e-05 0
ITEM: ATOMS x y z vx vy vy c_rho_peratom id type 
4.52368e-05 1.10517e-05 8.47636e-05 0.000444418 9.82222e-05 9.82222e-05 1209.23 1 1 
0.000284844 0.000889324 8.50087e-05 0.0431265 0.000225079 0.000225079 1217.08 2 1 
9.08541e-05 1.10948e-05 3.92547e-06 0.000814672 1.47546e-06 1.47546e-06 1159.07 3 1 
0.000322535 0.000893472 8.87128e-05 0.0435239 0.000511966 0.000511966 1288.9 4 1 
0.000202648 0.000900174 8.51288e-05 0.0443385 -9.17969e-05 -9.17969e-05 1284.63 5 1 
0.000181352 1.00767e-05 8.45725e-05 0.000533346 -0.000649914 -0.000649914 1200.19 6 1 
1.89548e-05 0.000897992 1.00416e-05 0.0450948 -5.67221e-05 -5.67221e-05 1211.7 7 1 
0.000215117 8.75755e-06 8.90268e-05 0.000986298 0.000336432 0.000336432 1231.5 8 1 
0.00025713 4.8387e-06 4.62637e-06 0.000534697 0.000163964 0.000163964 1248.94 9 1 
0.000262134 2.03364e-05 8.35247e-05 8.51715e-05 -8.19699e-05 -8.19699e-05 1254.9 10 1 
0.000287413 1.15034e-05 4.63185e-06 0.0008169 -5.57113e-05 -5.57113e-05 1164.29 11 1 
0.000321995 6.25467e-06 7.70437e-06 0.00106871 0.000802935 0.000802935 1181.58 12 1 
0.00017273 0.00089905 1.68997e-06 0.0455379 0.000655516 0.000655516 1234.87 13 1 
4.5825e-06 6.51454e-06 5.31422e-06 0.00153216 -0.000145279 -0.000145279 1270.54 14 1 
0.00015259 0.000897204 1.10146e-05 0.0438101 -0.000114857 -0.000114857 1269.58 15 1 
4.23104e-05 3.93091e-05 8.46871e-05 0.00209405 0.000659777 0.000659777 1228.97 16 1 
7.18675e-05 3.55486e-05 5.64639e-06 0.00173581 -7.56577e-05 -7.56577e-05 1191.08 17 1 
9.02356e-05 3.61489e-05 2.88914e-06 0.00151025 0.000587886 0.000587886 1192.24 18 1 
0.000111145 4.47904e-05 8.39863e-05 0.00233616 0.000175131 0.000175131 1216.78 19 1 
0.000139121 3.77579e-05 1.07842e-05 0.00163497 -0.000216778 -0.000216778 1200.99 20 1 
0.000159351 4.05812e-05 8.72275e-05 0.0024741 -0.000619913 -0.000619913 1215.67 21 1 
0.000177829 3.51328e-05 4.29235e-06 0.00176418 -0.000466277 -0.000466277 1223.95 22 1 
0.000208966 3.03506e-05 8.99624e-05 0.00174388 -0.000152045 -0.000152045 1219.3 23 1 
0.000238226 4.18353e-05 1.57785e-05 0.00312188 -0.000694396 -0.000694396 1211.16 24 1 
0.000255801 4.31653e-05 8.84572e-05 0.0027196 1.04886e-05 1.04886e-05 1213.63 25 1 
0.000287223 3.30404e-05 5.65155e-06 0.00211075 0.000477349 0.000477349 1187.35 26 1 
0.000308416 3.65992e-05 1.45448e-05 0.00225795 0.00019711 0.00019711 1187.57 27 1 
0.000330876 3.90592e-05 8.66211e-05 0.00270227 -0.000472307 -0.000472307 1198.54 28 1 
-2.23811e-07 4.63451e-05 4.76742e-06 0.00249773 0.000129872 0.000129872 1235.52 29 1 
1.83595e-05 3.6114e-05 8.45048e-05 0.00147289 0.000323774 0.000323774 1247.52 30 1 
4.94675e-05 6.13133e-05 8.63071e-05 0.00310625 -0.00013912 -0.00013912 1206.25 31 1 
6.86146e-05 4.71958e-05 2.31095e-06 0.00288334 -0.000444443 -0.000444443 1193.59 32 1 
9.00745e-05 6.3337e-05 2.11716e-06 0.00198995 0.000207757 0.000207757 1185.6 33 1 
0.000118536 4.57293e-05 4.86283e-07 0.00292029 0.000179764 0.000179764 1213.18 34 1 
0.00014887 6.2228e-05 4.14913e-08 0.00291029 0.000894331 0.000894331 1233.1 35 1 
0.000174443 6.03516e-05 7.56502e-06 0.00322256 7.10091e-05 7.10091e-05 1212.28 36 1 
0.000190618 5.51103e-05 5.43936e-06 0.00327635 -0.001025 -0.001025 1218.87 37 1 
0.000211198 5.11143e-05 8.82178e-05 0.00229974 -1.37223e-05 -1.37223e-05 1222.74 38 1 
0.000243608 5.52305e-05 3.15567e-06 0.00277124 -0.000277752 -0.000277752 1213.91 39 1 
0.000270063 5.8527e-05 9.78746e-06 0.00318549 -0.00086325 -0.00086325 1202.39 40 1 
0.000286773 5.72734e-05 8.44836e-06 0.00307182 0.000220487 0.000220487 1210.95 41 1 
0.000311382 5.75474e-05 8.62368e-05 0.00246637 -3.10665e-05 -3.10665e-05 1235.61 42 1 
0.000341765 4.92314e-05 3.40622e-06 0.00257708 -0.000140947 -0.000140947 1213.03 43 1 
0.000357465 4.99434e-05 1.3202e-06 0.00314844 -4.71713e-05 -4.71713e-05 1234.45 44 1 
2.80876e-05 5.61056e-05 2.40864e-06 0.00247736 -0.000479737 -0.000479737 1234.77 45 1 
7.22217e-05 8.67424e-05 6.27563e-06 0.0041757 -0.00038928 -0.00038928 1212.2 46 1 
8.49323e-05 7.63836e-05 8.83708e-05 0.00363369 0.000110257 0.000110257 1187.08 47 1 
0.000105341 8.69476e-05 8.78297e-07 0.00419459 5.27088e-05 5.27088e-05 1201.8 48 1 
0.000146303 8.51046e-05 8.95959e-05 0.00462647 -0.000131229 -0.000131229 1216.41 49 1 
0.000158632 8.84302e-05 6.21883e-06 0.00499599 -0.000316759 -0.000316759 1214.18 50 1 
0.000186531 8.39276e-05 8.47942e-05 0.00437327 -0.000800858 -0.000800858 1211.01 51 1 
0.000221815 8.91378e-05 1.98665e-06 0.0049958 0.000737819 0.000737819 1224.13 52 1 
0.000239597 8.8077e-05 9.31537e-06 0.00446828 -0.000270921 -0.000270921 1212.18 53 1 
0.000264195 7.99892e-05 3.3666e-06 0.00344535 -0.00106015 -0.00106015 1204.16 54 1 
0.000274421 9.10917e-05 1.86388e-06 0.00471254 -0.000250224 -0.000250224 1202.56 55 1 
0.000310369 8.41081e-05 8.65586e-05 0.00396569 0.000406731 0.000406731 1227.35 56 1 
0.000337543 7.57095e-05 6.64883e-06 0.00482207 -0.000451996 -0.000451996 1213.91 57 1 
1.66249e-06 8.64733e-05 8.48887e-05 0.00414831 -0.000178591 -0.000178591 1226.94 58 1 
1.82162e-05 8.93599e-05 8.77925e-05 0.00409416 0.000382442 0.000382442 1217.26 59 1 
4.05291e-05 8.09563e-05 7.78949e-06 0.00434042 0.000164628 0.000164628 1211.83 60 1 
7.28858e-05 0.000108963 8.59124e-06 0.0053925 0.000493245 0.000493245 1229.74 61 1 
0.000102579 9.91071e-05 9.00139e-05 0.0041991 0.000612754 0.000612754 1217.76 62 1 
0.000129424 0.000110353 8.87814e-05 0.00529555 0.000294001 0.000294001 1220.15 63 1 
0.000151473 0.000102291 6.87591e-06 0.00441696 -0.000419432 -0.000419432 1233.08 64 1 
0.000186806 0.000107097 8.52303e-06 0.0050295 0.000541553 0.000541553 1229.05 65 1 
0.000204944 0.000109096 7.21733e-06 0.0053672 -7.99812e-06 -7.99812e-06 1235.91 66 1 
0.000222289 9.92686e-05 8.55555e-05 0.00544996 0.000920854 0.000920854 1227.99 67 1 
0.000257934 0.000108325 8.06881e-05 0.0057458 -0.000774721 -0.000774721 1216.37 68 1 
0.000261065 0.000105521 2.48797e-06 0.00427972 0.000527295 0.000527295 1193.23 69 1 
0.000295879 9.82551e-05 8.75884e-05 0.00463369 -0.00066219 -0.00066219 1223.43 70 1 
0.000319889 9.79552e-05 8.64149e-06 0.00473572 0.000962174 0.000962174 1214.44 71 1 
0.000354858 0.000112748 1.99706e-06 0.0050217 -0.000807398 -0.000807398 1214.58 72 1 
1.7559e-05 0.000105858 4.12972e-06 0.00540481 -0.000113028 -0.000113028 1212.09 73 1 
3.9038e-05 0.000104508 8.23233e-06 0.006128 0.000853403 0.000853403 1224.14 74 1 
6.07464e-05 0.000107684 6.97432e-06 0.00540499 0.000467804 0.000467804 1234.19 75 1 
8.22353e-05 0.000119798 2.75117e-06 0.00562453 0.000526361 0.000526361 1204.86 76 1 
0.000120281 0.000128045 8.84246e-05 0.00564932 -0.000611686 -0.000611686 1206.14 77 1 
0.000148289 0.000133254 2.91508e-06 0.00618042 -0.000131762 -0.000131762 1226.28 78 1 
0.000180233 0.000126758 1.01982e-06 0.00677064 -0.000150726 -0.000150726 1204.37 79 1 
0.00019815 0.000134055 4.45926e-06 0.00684997 0.000159318 0.000159318 1211.57 80 1 
0.00021903 0.000132407 6.37796e-06 0.0067003 0.000221811 0.000221811 1196.25 81 1 
0.000248356 0.000133083 5.81043e-06 0.00644721 -1.16044e-05 -1.16044e-05 1176.82 82 1 
0.000268381 0.000132288 5.98459e-06 0.00682731 -9.99073e-05 -9.99073e-05 1194.83 83 1 
0.000300408 0.000130278 6.48676e-06 0.00619855 3.70183e-07 3.70183e-07 1199.97 84 1 
0.000315607 0.000129263 1.20015e-05 0.0061466 0.000108238 0.000108238 1200.62 85 1 
0.000340604 0.000130155 8.76513e-05 0.00575492 2.31606e-06 2.31606e-06 1197.57 86 1 
-1.27476e-06 0.000126375 2.07749e-07 0.00618771 0.000263615 0.000263615 1203.47 87 1 
3.55994e-05 0.000129321 5.07439e-07 0.00623415 -2.75323e-05 -2.75323e-05 1180.78 88 1 
5.51847e-05 0.000125988 8.41962e-05 0.00660459 0.000397621 0.000397621 1198.89 89 1 
0.000100137 0.000139088 8.9916e-05 0.00680971 0.000203881 0.000203881 1193.82 90 1 
0.000113237 0.000144575 1.36353e-05 0.00709611 0.000451294 0.000451294 1201.93 91 1 
0.000146393 0.000159343 8.94895e-05 0.00831644 -0.000435595 -0.000435595 1220.78 92 1 
0.000158684 0.000152496 4.14547e-06 0.00802379 -0.000416426 -0.000416426 1202.08 93 1 
0.000194134 0.00015226 8.95986e-05 0.00681966 0.000297068 0.000297068 1215.9 94 1 
0.000212511 0.000147524 8.31132e-06 0.00687081 -0.000570303 -0.000570303 1221.3 95 1 
0.000247198 0.000148049 8.826e-05 0.00779365 -0.000882792 -0.000882792 1196.72 96 1 
0.000265933 0.000161796 5.14668e-06 0.00834215 8.39365e-05 8.39365e-05 1200.57 97 1 
0.000284791 0.000149168 3.07721e-06 0.00767934 -0.000120516 -0.000120516 1195.4 98 1 
0.000305725 0.000150196 8.7238e-05 0.00695383 0.000273207 0.000273207 1193.64 99 1 
0.000332341 0.000152747 8.11107e-05 0.00848211 0.000380228 0.000380228 1203.58 100 1 
-7.82461e-08 0.00014615 2.57285e-06 0.00716968 -0.000290438 -0.000290438 1195.91 101 1 
1.76644e-05 0.000153697 8.72895e-05 0.00746534 -0.00018678 -0.00018678 1199.67 102 1 
3.62167e-05 0.00015352 8.7467e-05 0.00703325 0.000112309 0.000112309 1195.93 103 1 
6.26794e-05 0.000150464 8.50544e-05 0.00731394 -0.000149164 -0.000149164 1205.47 104 1 
9.83248e-05 0.000156069 9.99999e-06 0.00783427 -0.00027625 -0.00027625 1204.94 105 1 
0.000122842 0.000179319 8.09616e-06 0.00894745 -0.000582095 -0.000582095 1194.65 106 1 
0.000160352 0.00017311 8.50105e-05 0.00705336 0.000161785 0.000161785 1198.7 107 1 
0.000190766 0.00017524 4.51536e-06 0.00904118 -0.000469537 -0.000469537 1197.93 108 1 
0.000195914 0.000168642 8.32748e-05 0.00830368 -0.000100353 -0.000100353 1206.89 109 1 
0.000233904 0.000178208 1.06142e-05 0.00940014 0.000115353 0.000115353 1201.09 110 1 
0.000252394 0.000184961 7.50145e-06 0.00829151 0.000209352 0.000209352 1195.96 111 1 
0.000285125 0.000180579 4.91301e-06 0.00896011 -7.44596e-05 -7.44596e-05 1186.53 112 1 
0.000300017 0.000182175 1.30282e-06 0.00959282 0.000411274 0.000411274 1201.67 113 1 
0.00031716 0.000184167 8.10426e-05 0.00893663 -1.1261e-05 -1.1261e-05 1203.99 114 1 
0.00035336 0.000173811 8.74331e-05 0.00876344 0.000820879 0.000820879 1186.12 115 1 
1.3701e-05 0.00017652 5.48587e-06 0.00909985 -0.000728766 -0.000728766 1198.6 116 1 
4.0227e-05 0.000168785 1.41747e-05 0.00883156 -0.000204082 -0.000204082 1211.37 117 1 
6.6799e-05 0.000183008 8.59208e-05 0.0100409 0.000157978 0.000157978 1209.04 118 1 
9.01908e-05 0.000181795 7.17204e-06 0.00910908 -0.000206246 -0.000206246 1207.41 119 1 
0.00010001 0.000174091 1.52784e-06 0.00849806 -0.000311015 -0.000311015 1201.01 120 1 
0.000156877 0.000205871 8.415e-05 0.011229 0.00065369 0.00065369 1180.74 121 1 
0.000169173 0.000202502 9.70844e-06 0.0105776 -0.000290643 -0.000290643 1182.98 122 1 
0.00020002 0.000208054 4.06461e-06 0.0104508 0.000342149 0.000342149 1179.56 123 1 
0.000228219 0.00020498 3.0393e-07 0.0106047 1.69832e-05 1.69832e-05 1203.85 124 1 
0.000254169 0.000211138 1.03946e-05 0.0105397 0.000791276 0.000791276 1190.57 125 1 
0.000266084 0.00020017 9.27701e-06 0.00950391 -0.000878545 -0.000878545 1187.76 126 1 
0.000305075 0.000209439 8.3899e-05 0.011019 0.000552091 0.000552091 1200.56 127 1 
0.00032171 0.000193508 5.27631e-06 0.00987989 -0.000319033 -0.000319033 1208.47 128 1 
0.000347798 0.000203654 1.24252e-05 0.0106165 -0.00012286 -0.00012286 1180.47 129 1 
1.08452e-05 0.000210955 3.98991e-06 0.010334 -0.000710416 -0.000710416 1187.93 130 1 
3.40747e-05 0.000206319 8.60403e-05 0.010938 8.85926e-05 8.85926e-05 1206.22 131 1 
5.62581e-05 0.000201132 8.29454e-05 0.0105334 -0.000508532 -0.000508532 1210.81 132 1 
8.73098e-05 0.000200163 6.748e-06 0.00973902 -0.000287097 -0.000287097 1183.22 133 1 
0.000113361 0.00021644 1.59714e-06 0.0104285 -0.000190267 -0.000190267 1190.95 134 1 
0.000137758 0.000201975 3.86019e-07 0.0100599 -0.000213377 -0.000213377 1201.21 135 1 
0.000175905 0.000227745 3.56268e-07 0.0112445 0.000261043 0.000261043 1197.44 136 1 
0.000193873 0.000231106 1.05971e-05 0.0117508 -0.000108293 -0.000108293 1208.02 137 1 
0.000222871 0.000224312 8.7913e-05 0.0115083 -0.000518313 -0.000518313 1211.27 138 1 
0.000253271 0.000233229 8.98463e-05 0.0115766 0.000694837 0.000694837 1188.78 139 1 
0.00027517 0.000235097 6.44946e-06 0.0118635 -0.000292896 -0.000292896 1217.77 140 1 
0.000292476 0.000223601 9.01104e-05 0.0112923 -3.96875e-05 -3.96875e-05 1211.47 141 1 
0.000312361 0.000223777 8.78351e-06 0.0112586 -7.33102e-05 -7.33102e-05 1200.52 142 1 
0.000346299 0.000228011 2.09161e-06 0.0107177 0.000468358 0.000468358 1192.66 143 1 
-3.28735e-06 0.000224733 4.0791e-06 0.0106094 0.000432352 0.000432352 1193.53 144 1 
2.50892e-05 0.000217969 8.55234e-05 0.0109427 0.000868999 0.000868999 1195.27 145 1 
5.01119e-05 0.000230109 8.27107e-06 0.0120832 1.23237e-05 1.23237e-05 1203.71 146 1 
6.73413e-05 0.000227804 9.06022e-06 0.0112292 -0.000535485 -0.000535485 1181.9 147 1 
0.000107715 0.000227922 1.07474e-05 0.0111162 0.000326015 0.000326015 1188.09 148 1 
0.000121469 0.000220045 1.89014e-06 0.011439 -0.000816084 -0.000816084 1197.49 149 1 
0.000142057 0.000225841 8.96161e-05 0.0110428 3.00034e-05 3.00034e-05 1178.1 150 1 
0.000184896 0.000257925 4.23895e-06 0.0134401 0.000791939 0.000791939 1201.3 151 1 
0.000210078 0.000259808 9.32428e-06 0.0125394 0.000241231 0.000241231 1188.48 152 1 
0.000241769 0.000252444 8.22926e-05 0.0123537 -0.000253755 -0.000253755 1188.63 153 1 
0.000253977 0.000247365 4.2909e-06 0.0128874 -0.000187192 -0.000187192 1195.15 154 1 
0.000290046 0.000244986 8.88538e-05 0.0123463 -0.00031067 -0.00031067 1219.27 155 1 
0.000307501 0.000254795 7.72175e-06 0.0134756 -0.000290508 -0.000290508 1199.92 156 1 
0.000333734 0.000251037 8.9448e-05 0.0117697 -0.000733634 -0.000733634 1165.61 157 1 
-5.438e-06 0.000261517 1.99681e-06 0.0132634 6.62183e-05 6.62183e-05 1181.22 158 1 
2.20195e-05 0.000247492 3.09587e-06 0.0125746 0.000497931 0.000497931 1163.17 159 1 
4.61556e-05 0.000247556 8.03453e-05 0.0114186 0.000395243 0.000395243 1174.24 160 1 
7.90555e-05 0.000258928 4.60948e-07 0.0126867 0.000187484 0.000187484 1193.08 161 1 
0.000104137 0.000264964 8.52733e-05 0.0137964 -0.00011529 -0.00011529 1209.99 162 1 
0.000121242 0.000259922 7.76657e-06 0.012998 -0.000147368 -0.000147368 1202.2 163 1 
0.000137721 0.00025232 5.69801e-06 0.01284 0.00042629 0.00042629 1155.11 164 1 
0.000167755 0.000248091 1.36745e-06 0.0126167 -0.000302099 -0.000302099 1181.93 165 1 
0.000210665 0.000286332 8.23003e-05 0.0140497 -0.0003098 -0.0003098 1182.53 166 1 
0.000234264 0.000273712 8.66699e-05 0.0135338 -0.000829262 -0.000829262 1185.37 167 1 
0.000258507 0.000278056 8.51261e-06 0.0135598 5.44699e-05 5.44699e-05 1164.93 168 1 
0.000280762 0.000264667 8.75107e-05 0.0123505 0.000768501 0.000768501 1188.43 169 1 
0.000300922 0.000276794 5.10506e-06 0.0137239 0.000330112 0.000330112 1193.82 170 1 
0.000325729 0.000272289 1.37962e-06 0.0127613 0.000461995 0.000461995 1176.42 171 1 
-8.51755e-06 0.00026917 2.4665e-06 0.013383 0.000107212 0.000107212 1179.62 172 1 
1.18041e-05 0.000278307 5.86267e-06 0.0142488 0.000129923 0.000129923 1200.91 173 1 
4.06722e-05 0.000283836 4.84853e-06 0.0146606 -0.000679082 -0.000679082 1172.19 174 1 
6.61845e-05 0.000281864 4.44351e-06 0.0137075 0.000278005 0.000278005 1169.66 175 1 
9.58451e-05 0.000272722 1.46496e-05 0.0147521 0.00044227 0.00044227 1190.47 176 1 
0.000110156 0.000275592 4.31824e-06 0.0132157 0.000325175 0.000325175 1208.88 177 1 
0.000132192 0.000285527 8.7833e-05 0.0139929 6.20188e-05 6.20188e-05 1173.03 178 1 
0.000167994 0.000280974 3.04521e-06 0.0135948 2.50516e-06 2.50516e-06 1177.54 179 1 
0.000180228 0.000274313 1.10357e-06 0.0141709 -0.000376725 -0.000376725 1194.28 180 1 
0.00023057 0.000303069 1.62328e-06 0.0147097 -0.000107121 -0.000107121 1204.73 181 1 
0.000242661 0.000288077 1.51268e-06 0.0139554 0.000169554 0.000169554 1187.82 182 1 
0.000276554 0.000305785 9.49098e-06 0.014462 0.000259955 0.000259955 1160.95 183 1 
0.000298213 0.000301283 1.17192e-06 0.0145037 -0.000573897 -0.000573897 1167.26 184 1 
0.000322628 0.000297607 1.20062e-05 0.0150704 -0.000413741 -0.000413741 1147.94 185 1 
0.00033278 0.000298893 8.08286e-05 0.015137 -0.000948995 -0.000948995 1135.98 186 1 
3.1489e-07 0.00029633 8.60588e-05 0.0144691 -0.000197433 -0.000197433 1179.17 187 1 
3.03338e-05 0.000297063 7.92049e-05 0.0159655 -0.000106122 -0.000106122 1171.46 188 1 
5.79355e-05 0.000301042 7.87306e-06 0.0155462 0.000307339 0.000307339 1168.59 189 1 
7.88796e-05 0.000300842 8.5628e-05 0.015457 -0.00047091 -0.00047091 1172.98 190 1 
0.000111637 0.000302561 2.20345e-06 0.0153055 -5.22124e-05 -5.22124e-05 1189.06 191 1 
0.000126587 0.000308891 8.70194e-05 0.0156174 0.00046943 0.00046943 1181.92 192 1 
0.000157446 0.000305482 6.08319e-06 0.0160614 -0.000447218 -0.000447218 1175.03 193 1 
0.000176323 0.000295431 8.94551e-05 0.0156215 -0.0007402 -0.0007402 1180.86 194 1 
0.000207885 0.000309119 8.93793e-05 0.0149485 0.000610497 0.000610497 1180.48 195 1 
0.00023556 0.0003248 2.10609e-06 0.0153889 0.00041652 0.00041652 1191.48 196 1 
0.000268221 0.000324697 1.25826e-05 0.0162761 -6.95558e-05 -6.95558e-05 1168.94 197 1 
0.000289165 0.000327722 8.5853e-05 0.0171106 0.00062348 0.00062348 1176 198 1 
0.000307177 0.000323694 8.83382e-05 0.0154841 -0.000370037 -0.000370037 1134.98 199 1 
0.000339335 0.000321872 7.01342e-06 0.0167159 0.00042639 0.00042639 1139.44 200 1 
1.4506e-06 0.000326897 1.29356e-06 0.0164232 -0.000729286 -0.000729286 1175.5 201 1 
2.70888e-05 0.000330551 7.25976e-07 0.0165761 0.00031405 0.00031405 1149.31 202 1 
4.82921e-05 0.000327096 8.96139e-05 0.0168195 -0.000385966 -0.000385966 1152.95 203 1 
7.13579e-05 0.000325766 8.84125e-06 0.0160772 0.000251475 0.000251475 1165.45 204 1 
9.63222e-05 0.000329469 4.78275e-07 0.0160614 8.39323e-05 8.39323e-05 1153.11 205 1 
0.000121356 0.000321053 6.98435e-06 0.0152715 -0.00033651 -0.00033651 1161.41 206 1 
0.000149625 0.000328017 2.97355e-06 0.0165466 0.000873908 0.000873908 1150.8 207 1 
0.000172181 0.000331935 1.29246e-05 0.016901 0.00092537 0.00092537 1162.17 208 1 
0.000197296 0.000322536 8.78912e-05 0.0167956 -3.52621e-05 -3.52621e-05 1173.2 209 1 
0.000219462 0.000325301 3.40332e-06 0.015651 1.8354e-06 1.8354e-06 1187.61 210 1 
0.000261312 0.000354 8.42046e-06 0.0183619 1.62416e-05 1.62416e-05 1185.32 211 1 
0.000280711 0.000341703 7.05541e-08 0.016386 0.000823612 0.000823612 1183.05 212 1 
0.000306185 0.000358411 1.56878e-06 0.0182649 0.00038522 0.00038522 1136.06 213 1 
0.000331545 0.000349228 1.26874e-06 0.017342 -0.00073005 -0.00073005 1155.87 214 1 
-6.99308e-06 0.000345549 8.96252e-05 0.017829 -5.22102e-05 -5.22102e-05 1184.56 215 1 
1.9413e-05 0.000343726 8.97973e-05 0.0173766 0.000134462 0.000134462 1165.81 216 1 
4.39545e-05 0.000355009 3.69662e-06 0.0171731 0.000127037 0.000127037 1162.35 217 1 
7.34978e-05 0.000349837 3.35873e-06 0.0173667 0.00074474 0.00074474 1155.45 218 1 
9.67927e-05 0.000349258 3.37501e-06 0.0173548 0.000390847 0.000390847 1149.25 219 1 
0.000107804 0.000350312 4.30233e-06 0.0166099 -0.000198872 -0.000198872 1151.39 220 1 
0.000133811 0.00034535 7.51278e-06 0.0174395 0.000444368 0.000444368 1143.2 221 1 
0.000175715 0.000349516 8.8283e-05 0.0175464 0.000523363 0.000523363 1173.58 222 1 
0.000190498 0.000354322 3.02451e-06 0.0179095 3.99283e-05 3.99283e-05 1170.13 223 1 
0.000210951 0.000354191 3.95164e-06 0.0170431 -2.65567e-05 -2.65567e-05 1161.65 224 1 
0.000237005 0.00034335 1.94063e-06 0.0163797 -0.000389067 -0.000389067 1178.42 225 1 
0.000275583 0.000368804 2.7259e-07 0.0179371 -0.000576429 -0.000576429 1199.22 226 1 
0.000307323 0.000384136 1.10574e-05 0.0185128 -0.000253257 -0.000253257 1146.73 227 1 
0.000329248 0.000376972 8.39242e-06 0.0192667 -8.39026e-05 -8.39026e-05 1152.39 228 1 
-9.33937e-06 0.000369598 8.69691e-05 0.0185341 -0.00019697 -0.00019697 1173.83 229 1 
1.59319e-05 0.000374347 1.08434e-05 0.0190194 0.000531137 0.000531137 1135.78 230 1 
3.91765e-05 0.000376941 8.84047e-05 0.0191386 -0.000905538 -0.000905538 1157.67 231 1 
5.34293e-05 0.000373208 1.22712e-06 0.0184639 6.48993e-05 6.48993e-05 1167.67 232 1 
7.85732e-05 0.000373738 8.71101e-06 0.0191126 0.000669598 0.000669598 1163.93 233 1 
0.000118726 0.00037741 8.9822e-05 0.0191508 0.000393305 0.000393305 1180.18 234 1 
0.00012671 0.00037909 6.66822e-06 0.0188433 -3.31527e-05 -3.31527e-05 1177.51 235 1 
0.000160404 0.000376298 1.65678e-06 0.0190162 -0.000261013 -0.000261013 1146.66 236 1 
0.00017995 0.000377147 1.34476e-06 0.0185254 0.000346328 0.000346328 1154.73 237 1 
0.000210216 0.000377307 8.35513e-05 0.018709 -0.000634817 -0.000634817 1160.57 238 1 
0.000229837 0.000367223 1.14563e-05 0.0185452 0.000487408 0.000487408 1157.36 239 1 
0.000260169 0.000373987 3.42451e-06 0.0196273 -0.000606374 -0.000606374 1196.62 240 1 
0.000298726 0.000407868 8.61263e-05 0.021311 0.000329159 0.000329159 1163.91 241 1 
0.000314872 0.000398847 8.71101e-05 0.0196102 0.000638332 0.000638332 1141.45 242 1 
0.000346203 0.000396377 4.11164e-06 0.019393 0.000455063 0.000455063 1181.9 243 1 
1.69735e-05 0.000403786 1.41389e-07 0.0200327 2.32455e-05 2.32455e-05 1179.02 244 1 
2.98113e-05 0.000407764 8.53506e-05 0.0207331 6.65057e-05 6.65057e-05 1165.32 245 1 
5.29342e-05 0.000403698 3.81887e-06 0.0195733 -0.000464224 -0.000464224 1167.55 246 1 
7.87207e-05 0.000399308 2.02225e-06 0.0201136 0.000430247 0.000430247 1164.17 247 1 
0.000107122 0.000400174 1.71085e-06 0.0196428 0.000629743 0.000629743 1159 248 1 
0.000124981 0.000399137 8.52274e-06 0.0207418 0.00109917 0.00109917 1145.26 249 1 
0.00015815 0.000402618 8.51608e-05 0.0206537 -7.66349e-05 -7.66349e-05 1129.29 250 1 
0.000168895 0.000393107 4.60883e-06 0.0196184 7.56194e-05 7.56194e-05 1146.54 251 1 
0.00020654 0.000402474 3.25643e-06 0.0205874 0.000945192 0.000945192 1162.96 252 1 
0.000232554 0.000403633 1.01141e-05 0.020398 0.000302301 0.000302301 1147.38 253 1 
0.000257176 0.000409565 5.29948e-06 0.0192409 0.000386656 0.000386656 1182.87 254 1 
0.000273858 0.000406348 7.60716e-06 0.0198749 0.000288243 0.000288243 1189.11 255 1 
0.000314078 0.000423418 1.18339e-05 0.0214717 -0.000567245 -0.000567245 1164.26 256 1 
0.000343856 0.00041695 6.58805e-06 0.0209557 0.000200069 0.000200069 1179.32 257 1 
-6.86888e-06 0.000416535 4.38501e-06 0.0214784 -0.000174852 -0.000174852 1197.64 258 1 
2.9439e-05 0.00043091 4.3146e-06 0.0212284 -0.000536909 -0.000536909 1154.64 259 1 
5.24507e-05 0.000423144 8.9001e-05 0.0213646 0.000278229 0.000278229 1167.21 260 1 
7.71297e-05 0.000431897 1.6493e-06 0.0208974 0.000466795 0.000466795 1178.38 261 1 
0.000101877 0.000423023 4.4406e-06 0.0218804 -0.000437672 -0.000437672 1147.35 262 1 
0.000128281 0.00042155 2.49871e-06 0.0210104 -0.000314421 -0.000314421 1150.81 263 1 
0.000149379 0.000433805 4.58541e-06 0.0208788 -0.000247247 -0.000247247 1177.56 264 1 
0.000168383 0.000432508 8.51129e-05 0.0216376 0.000101697 0.000101697 1183.65 265 1 
0.000187038 0.000421628 8.61453e-05 0.0213523 -0.000344745 -0.000344745 1183.33 266 1 
0.000214126 0.000423176 7.37328e-07 0.0205329 0.000671554 0.000671554 1156.06 267 1 
0.000242503 0.000427752 4.20686e-06 0.0220481 0.000355439 0.000355439 1167.44 268 1 
0.000268415 0.000429628 2.30351e-06 0.0207646 0.000438617 0.000438617 1175.47 269 1 
0.000295712 0.000426426 8.86896e-05 0.0210935 0.00010493 0.00010493 1184.53 270 1 
0.000330524 0.000450831 7.21951e-06 0.0223325 0.00076166 0.00076166 1134.64 271 1 
-6.10006e-06 0.000448376 3.05161e-07 0.02283 6.51896e-05 6.51896e-05 1163.73 272 1 
1.48369e-05 0.000458547 4.04135e-06 0.0229539 0.00069751 0.00069751 1173.96 273 1 
3.57509e-05 0.000443973 8.23539e-07 0.0229213 0.000370946 0.000370946 1146.94 274 1 
7.30774e-05 0.000455685 1.48561e-05 0.0231269 0.000443731 0.000443731 1158.49 275 1 
8.91752e-05 0.000446845 3.31531e-06 0.0219418 1.06291e-05 1.06291e-05 1171.9 276 1 
0.000125298 0.000449715 4.87443e-06 0.0227544 0.000189731 0.000189731 1173.75 277 1 
0.00014139 0.000458566 8.72198e-05 0.023164 0.000614033 0.000614033 1178.16 278 1 
0.000172091 0.000454709 8.13259e-05 0.0223725 -0.000249521 -0.000249521 1160.14 279 1 
0.00018441 0.000442569 1.15339e-05 0.0215436 -0.000647455 -0.000647455 1156.2 280 1 
0.000225563 0.000455205 8.38137e-05 0.0224112 6.3706e-06 6.3706e-06 1149.2 281 1 
0.000229902 0.000447554 3.38263e-06 0.0226696 -0.000460647 -0.000460647 1154.66 282 1 
0.000253244 0.000440153 8.62482e-05 0.0218975 -0.000848759 -0.000848759 1160.14 283 1 
0.000286743 0.00044487 1.0069e-05 0.0227316 0.000243722 0.000243722 1151.77 284 1 
0.000306743 0.000443877 7.82078e-07 0.0214984 0.000207581 0.000207581 1158.52 285 1 
4.12219e-05 9.38172e-06 3.10945e-05 0.00129508 -2.00697e-05 -2.00697e-05 1259.82 286 1 
0.000139861 2.39075e-06 2.98034e-05 0.000416443 0.000457709 0.000457709 1223.3 287 1 
0.000302425 0.000890378 2.95429e-05 0.0452919 -0.000219726 -0.000219726 1239.65 288 1 
0.000326888 0.000894704 2.87354e-05 0.0445487 0.000703624 0.000703624 1258.88 289 1 
0.00014131 1.17598e-05 3.25773e-05 -0.000551152 0.000660458 0.000660458 1215.43 290 1 
0.000183426 8.27697e-06 2.72626e-05 0.00108106 0.000648827 0.000648827 1260.05 291 1 
0.000188188 1.2121e-05 2.87466e-05 0.0011414 -0.000244492 -0.000244492 1256.3 292 1 
6.77334e-05 0.000889578 2.78635e-05 0.0451539 7.5814e-05 7.5814e-05 1161.58 293 1 
7.55468e-05 0.000899429 3.01539e-05 0.0446779 0.000837183 0.000837183 1170.82 294 1 
0.000113492 0.000892181 2.81041e-05 0.0441679 0.000160703 0.000160703 1235.86 295 1 
0.000289662 1.06545e-05 3.05058e-05 0.00094171 0.000913491 0.000913491 1174.8 296 1 
0.000330998 1.58033e-05 2.93346e-05 0.000971639 0.000175188 0.000175188 1154.11 297 1 
0.000181534 0.000892721 2.58164e-05 0.044436 0.000133509 0.000133509 1247.86 298 1 
0.000211636 0.000889788 2.79561e-05 0.0446826 -0.000272886 -0.000272886 1214.46 299 1 
0.000236653 0.000886171 2.57065e-05 0.0444133 -5.07112e-05 -5.07112e-05 1215.01 300 1 
4.21097e-05 3.41476e-05 2.67127e-05 0.00126652 0.000483192 0.000483192 1216.51 301 1 
6.21684e-05 3.52316e-05 3.10307e-05 0.00205683 -0.000359245 -0.000359245 1197.88 302 1 
8.71951e-05 3.5724e-05 3.04884e-05 0.00257694 -0.000241651 -0.000241651 1199.13 303 1 
0.000118483 3.25831e-05 2.39197e-05 0.000904294 0.00115557 0.00115557 1184.33 304 1 
0.000145752 4.03129e-05 2.06669e-05 0.00151017 0.00026389 0.00026389 1213.82 305 1 
0.000167886 3.48124e-05 2.23836e-05 0.00141597 0.000241676 0.000241676 1216.46 306 1 
0.000187997 4.2198e-05 3.16409e-05 0.00269682 -0.00034345 -0.00034345 1222.94 307 1 
0.000209591 3.84319e-05 2.14917e-05 0.00142834 0.00106636 0.00106636 1229.16 308 1 
0.000233858 3.37216e-05 2.69372e-05 0.00170398 -0.000217577 -0.000217577 1206.72 309 1 
0.000254016 3.32005e-05 2.42198e-05 0.00175252 0.000573801 0.000573801 1194.35 310 1 
0.000274004 3.65092e-05 3.40044e-05 0.00234715 0.00049631 0.00049631 1214.87 311 1 
0.000302072 4.13395e-05 3.41216e-05 0.00268062 3.63651e-06 3.63651e-06 1213.79 312 1 
0.00032616 4.34601e-05 2.69203e-05 0.00237637 -0.000210205 -0.000210205 1182.37 313 1 
7.41683e-06 3.42855e-05 2.64098e-05 0.000676858 -0.000329834 -0.000329834 1217.36 314 1 
1.43236e-05 3.85304e-05 2.69583e-05 0.00226804 0.000199156 0.000199156 1223.99 315 1 
4.75378e-05 4.74672e-05 3.3646e-05 0.00110265 -0.000240195 -0.000240195 1201.99 316 1 
7.16547e-05 5.64207e-05 3.4168e-05 0.00303854 7.07163e-05 7.07163e-05 1200.1 317 1 
9.20959e-05 5.68279e-05 3.20482e-05 0.00241189 -0.000409616 -0.000409616 1207.67 318 1 
0.000123678 6.08849e-05 2.71325e-05 0.00305926 -0.000219794 -0.000219794 1208.32 319 1 
0.000144553 6.22605e-05 2.34807e-05 0.00332268 0.000325283 0.000325283 1239.77 320 1 
0.000165866 5.19658e-05 3.39667e-05 0.00176351 0.000112758 0.000112758 1227.45 321 1 
0.00020125 6.05657e-05 2.62049e-05 0.00325801 4.24581e-05 4.24581e-05 1216.48 322 1 
0.000219237 6.22661e-05 3.10868e-05 0.00311811 0.00020778 0.00020778 1216.34 323 1 
0.000249859 5.76285e-05 2.56954e-05 0.00226381 0.000254378 0.000254378 1217.29 324 1 
0.000277652 5.27409e-05 2.49781e-05 0.00211727 -0.000219975 -0.000219975 1219.61 325 1 
0.000295157 6.14312e-05 2.21598e-05 0.00260122 3.60508e-05 3.60508e-05 1215.88 326 1 
0.000312339 5.72453e-05 2.90292e-05 0.00300428 -0.000337114 -0.000337114 1217.56 327 1 
0.00033911 5.85691e-05 2.92814e-05 0.00303957 0.000232887 0.000232887 1212.02 328 1 
-7.92493e-07 6.43275e-05 2.39284e-05 0.00401147 -0.000542482 -0.000542482 1220.67 329 1 
2.41251e-05 5.56806e-05 2.76148e-05 0.00192639 0.000291626 0.000291626 1206.66 330 1 
7.10957e-05 7.98647e-05 3.31631e-05 0.003562 -0.000333666 -0.000333666 1215.83 331 1 
9.97355e-05 9.19601e-05 2.43618e-05 0.00448057 -0.000483258 -0.000483258 1211.52 332 1 
0.000127516 8.02067e-05 2.57805e-05 0.00472565 4.9568e-06 4.9568e-06 1218.79 333 1 
0.000130956 7.75555e-05 3.0548e-05 0.00438286 0.000298999 0.000298999 1220.18 334 1 
0.000164853 8.31678e-05 2.51724e-05 0.00352849 -3.26258e-07 -3.26258e-07 1214.94 335 1 
0.000189115 8.76084e-05 3.00755e-05 0.00354615 0.000488618 0.000488618 1201.48 336 1 
0.000213996 7.44743e-05 2.20231e-05 0.0034307 0.000562388 0.000562388 1218.44 337 1 
0.000236071 8.35272e-05 2.50162e-05 0.00504946 0.000425399 0.000425399 1215.36 338 1 
0.000257263 8.07294e-05 3.33262e-05 0.00413903 -0.000280349 -0.000280349 1224.58 339 1 
0.0002863 9.00207e-05 3.00309e-05 0.00455679 -0.000151401 -0.000151401 1204.95 340 1 
0.00030489 9.10546e-05 2.06769e-05 0.00469109 -0.000512443 -0.000512443 1216.81 341 1 
0.000331501 8.09723e-05 2.44219e-05 0.00447144 -0.000100837 -0.000100837 1209.94 342 1 
0.000350785 8.95422e-05 2.63073e-05 0.00473255 -0.000634899 -0.000634899 1203.06 343 1 
1.45658e-05 8.23197e-05 2.7363e-05 0.00412757 -0.000397876 -0.000397876 1197.95 344 1 
4.30191e-05 8.02294e-05 2.34635e-05 0.00311626 -0.000805579 -0.000805579 1204.72 345 1 
7.89893e-05 9.77157e-05 3.94456e-05 0.00427266 0.000107341 0.000107341 1232.25 346 1 
0.000105806 0.000107594 2.42411e-05 0.00518361 1.18095e-05 1.18095e-05 1215.65 347 1 
0.000131456 0.000103932 2.39686e-05 0.00596877 0.000269373 0.000269373 1214.1 348 1 
0.000154699 0.000106161 3.09197e-05 0.00513144 -0.000290529 -0.000290529 1223.23 349 1 