ITEM: TIMESTEP
3100
ITEM: NUMBER OF ATOMS
2220
ITEM: BOX BOUNDS xy xz yz pp pp pp
0 0.000367173 6.57344e-06
0 0.0009015 0
0 9.015e-05 0
ITEM: ATOMS x y z vx vy vy c_rho_peratom id type 
8.55277e-05 1.16732e-05 5.11796e-07 0.000587997 -1.83391e-05 -1.83391e-05 1225.44 1 1 
0.000319751 0.000894129 8.10357e-05 0.0446959 1.06155e-05 1.06155e-05 1220.74 2 1 
0.000136036 9.61992e-06 6.52642e-06 0.000485529 -7.23553e-06 -7.23553e-06 1198.49 3 1 
0.000359124 0.000888696 8.95985e-05 0.0444178 -5.28348e-06 -5.28348e-06 1229.23 4 1 
0.000238219 0.000886918 8.70692e-05 0.0443486 1.67879e-06 1.67879e-06 1213.67 5 1 
0.000222903 2.16892e-05 8.23257e-05 0.00108262 1.7122e-05 1.7122e-05 1228.84 6 1 
5.17054e-05 0.000896249 8.25974e-06 0.0448014 1.76697e-05 1.76697e-05 1221.84 7 1 
0.000254688 1.01227e-05 8.62437e-05 0.000499058 7.92086e-06 7.92086e-06 1219.48 8 1 
0.000297314 1.32525e-05 2.66757e-06 0.000659173 -1.27415e-05 -1.27415e-05 1171.23 9 1 
0.00029766 2.63238e-05 8.18622e-05 0.00132087 3.85999e-06 3.85999e-06 1178.07 10 1 
0.000332248 1.41989e-05 3.97854e-06 0.000702178 3.99013e-06 3.99013e-06 1191.03 11 1 
1.02509e-05 1.54699e-05 6.28197e-06 0.000789265 -4.62112e-06 -4.62112e-06 1172.73 12 1 
0.000209654 0.000894965 4.61037e-06 0.0447573 3.0905e-06 3.0905e-06 1169.15 13 1 
4.57844e-05 6.59351e-06 6.55107e-06 0.000320126 -1.78182e-05 -1.78182e-05 1224.73 14 1 
0.000137404 0.000898138 1.58349e-05 0.0448835 6.11831e-06 6.11831e-06 1211.98 15 1 
7.68231e-05 3.9255e-05 8.43207e-05 0.00196089 -4.59824e-06 -4.59824e-06 1205.39 16 1 
0.000112218 3.6277e-05 8.50061e-06 0.00181317 3.0325e-06 3.0325e-06 1220.07 17 1 
0.000126231 3.09935e-05 3.12989e-06 0.00156798 -1.00965e-05 -1.00965e-05 1191.96 18 1 
0.000155828 5.62297e-05 8.58479e-05 0.00279728 -3.54725e-06 -3.54725e-06 1209.89 19 1 
0.000173355 3.25602e-05 1.5309e-05 0.00163137 -3.13617e-06 -3.13617e-06 1196.11 20 1 
0.000197082 3.6886e-05 4.22869e-07 0.00188186 -6.92166e-06 -6.92166e-06 1226.67 21 1 
0.000213526 2.91995e-05 6.38152e-06 0.00147136 -1.06295e-05 -1.06295e-05 1221.9 22 1 
0.000247915 2.87141e-05 8.55158e-05 0.00146648 -7.69683e-06 -7.69683e-06 1213.78 23 1 
0.000280914 4.68083e-05 1.5219e-05 0.00235087 7.76419e-06 7.76419e-06 1205.98 24 1 
0.000296304 4.56987e-05 7.77736e-05 0.00228942 -1.71704e-05 -1.71704e-05 1202.08 25 1 
0.000325845 3.08708e-05 3.78719e-06 0.00155335 2.24367e-05 2.24367e-05 1183.08 26 1 
0.000342948 3.35757e-05 1.62075e-05 0.00167603 -1.1722e-05 -1.1722e-05 1213.92 27 1 
5.91074e-06 3.59661e-05 1.30263e-07 0.00181025 2.02108e-06 2.02108e-06 1203.84 28 1 
4.78781e-05 4.57019e-05 4.3882e-07 0.00229075 -1.30361e-05 -1.30361e-05 1217.01 29 1 
5.90449e-05 3.77236e-05 8.48375e-05 0.00188236 3.19398e-06 3.19398e-06 1208.55 30 1 
0.000111544 6.43456e-05 8.29701e-05 0.00321565 -5.03293e-07 -5.03293e-07 1210.34 31 1 
0.000115503 4.23849e-05 1.6322e-06 0.00212448 5.11339e-06 5.11339e-06 1209.84 32 1 
0.000148242 7.07255e-05 3.74139e-06 0.00353018 6.84533e-06 6.84533e-06 1198.75 33 1 
0.000160813 4.70308e-05 8.89856e-05 0.00235665 6.95868e-06 6.95868e-06 1203.11 34 1 
0.000201225 6.14383e-05 3.62442e-06 0.00306516 8.93919e-06 8.93919e-06 1192.36 35 1 
0.000228336 6.06718e-05 5.60918e-06 0.00302282 2.43765e-05 2.43765e-05 1175.83 36 1 
0.000231734 5.90027e-05 2.9305e-06 0.00296345 4.18454e-06 4.18454e-06 1175.77 37 1 
0.000255511 5.22797e-05 4.76044e-06 0.0026296 -2.11756e-06 -2.11756e-06 1181.99 38 1 
0.000293127 5.36955e-05 8.99856e-05 0.00267417 -4.05203e-06 -4.05203e-06 1195.5 39 1 
0.000316599 5.79367e-05 9.92646e-06 0.00289246 4.47262e-06 4.47262e-06 1181.32 40 1 
0.000342564 6.1667e-05 4.36747e-06 0.00309962 -1.34678e-05 -1.34678e-05 1203.32 41 1 
1.44135e-06 6.01278e-05 8.59901e-05 0.00300796 8.51565e-06 8.51565e-06 1204.53 42 1 
2.89255e-05 4.78736e-05 4.46053e-06 0.00238949 -7.354e-06 -7.354e-06 1194.79 43 1 
4.10141e-05 5.4137e-05 8.94815e-05 0.00269814 -3.86153e-06 -3.86153e-06 1209.98 44 1 
8.35159e-05 5.66025e-05 3.92317e-06 0.00282323 9.52598e-06 9.52598e-06 1207.6 45 1 
0.000153714 8.47011e-05 4.36627e-06 0.00423372 1.5179e-05 1.5179e-05 1188.22 46 1 
0.000148179 7.31758e-05 8.6112e-05 0.00367881 -1.36774e-05 -1.36774e-05 1195.72 47 1 
0.000178662 8.1547e-05 8.8419e-05 0.00406271 1.4064e-05 1.4064e-05 1197.94 48 1 
0.000218974 8.6578e-05 4.30751e-06 0.00431764 2.79722e-06 2.79722e-06 1207.82 49 1 
0.000233948 8.26888e-05 9.73059e-06 0.00413389 -1.16082e-05 -1.16082e-05 1201.68 50 1 
0.000260539 8.54481e-05 7.86563e-05 0.00429993 -9.76999e-06 -9.76999e-06 1203.38 51 1 
0.000299541 8.9435e-05 3.31193e-06 0.00446005 2.92601e-05 2.92601e-05 1201.44 52 1 
0.000320271 8.17122e-05 9.49187e-06 0.00406997 -5.76858e-06 -5.76858e-06 1196.27 53 1 
0.000338545 8.23892e-05 4.43724e-06 0.00412663 1.60966e-05 1.60966e-05 1199.02 54 1 
0.000352778 9.22107e-05 8.83752e-05 0.00459666 1.53556e-05 1.53556e-05 1199.45 55 1 
2.13914e-05 8.56212e-05 8.46793e-05 0.00427124 3.73992e-06 3.73992e-06 1221.57 56 1 
4.80814e-05 7.88299e-05 7.78178e-06 0.0039403 1.6891e-05 1.6891e-05 1205.05 57 1 
8.43525e-05 9.30695e-05 8.753e-05 0.00465015 1.50928e-06 1.50928e-06 1202.4 58 1 
9.19747e-05 8.95667e-05 2.97684e-06 0.00446746 1.001e-05 1.001e-05 1199.68 59 1 
0.000108612 7.67489e-05 9.87007e-06 0.00381195 7.57529e-06 7.57529e-06 1206.57 60 1 
0.00016161 0.000105587 1.1892e-05 0.0052644 1.22313e-05 1.22313e-05 1214.12 61 1 
0.000192598 0.000107355 5.26196e-06 0.00538363 3.1162e-06 3.1162e-06 1203.87 62 1 
0.000224437 0.000109647 8.37554e-05 0.00547423 -1.15154e-05 -1.15154e-05 1200.82 63 1 
0.000246379 0.000101136 5.02241e-06 0.0050454 2.01332e-05 2.01332e-05 1208.43 64 1 
0.000281604 0.000103741 7.78801e-06 0.00518776 3.8749e-06 3.8749e-06 1194.21 65 1 
0.000303327 0.000111843 3.55595e-06 0.00558743 1.23448e-05 1.23448e-05 1220.47 66 1 
0.000309564 9.85083e-05 2.76012e-06 0.00493274 1.71502e-06 1.71502e-06 1217.46 67 1 
0.000352491 0.00010658 1.23866e-06 0.00532671 9.3078e-06 9.3078e-06 1200.49 68 1 
0.000355122 0.000111787 9.01407e-05 0.00559613 -1.79381e-06 -1.79381e-06 1200.97 69 1 
2.24923e-05 0.000100417 8.87397e-05 0.00502176 -6.38752e-06 -6.38752e-06 1237.94 70 1 
4.68793e-05 0.000103849 8.2279e-06 0.00517456 1.50447e-06 1.50447e-06 1203.18 71 1 
8.87288e-05 0.000114705 2.28796e-06 0.00573898 2.93051e-06 2.93051e-06 1208.88 72 1 
0.000112732 0.000108908 3.26679e-06 0.00543447 -1.18674e-05 -1.18674e-05 1172.14 73 1 
0.000136409 0.000114767 4.63455e-06 0.00573132 -3.72516e-06 -3.72516e-06 1182.58 74 1 
0.000150367 0.000106151 6.70057e-06 0.00529946 -7.00238e-06 -7.00238e-06 1195.84 75 1 
0.000191315 0.000120129 8.74655e-06 0.00600118 -1.91377e-05 -1.91377e-05 1195.99 76 1 
0.000239934 0.000126451 8.84113e-05 0.00633836 1.41078e-05 1.41078e-05 1179.25 77 1 
0.000260278 0.000130939 1.04917e-05 0.00655881 -3.16864e-06 -3.16864e-06 1189.03 78 1 
0.000292863 0.000129308 6.23998e-06 0.00648005 2.84765e-07 2.84765e-07 1207.46 79 1 
0.000311993 0.000133715 4.69431e-06 0.00666282 1.08842e-05 1.08842e-05 1173.99 80 1 
0.000334619 0.0001333 4.22307e-06 0.0066875 -2.3517e-05 -2.3517e-05 1167.97 81 1 
6.28572e-06 0.00013921 6.82828e-06 0.00696733 2.69343e-06 2.69343e-06 1197.97 82 1 
2.6892e-05 0.000131054 8.91609e-05 0.00655876 6.59359e-06 6.59359e-06 1207.77 83 1 
5.90693e-05 0.000128015 1.29961e-05 0.00640902 5.34648e-06 5.34648e-06 1205.71 84 1 
6.27762e-05 0.000128873 2.20603e-06 0.00645866 2.90592e-06 2.90592e-06 1208.56 85 1 
9.1652e-05 0.000132396 8.83587e-05 0.00661881 6.58708e-06 6.58708e-06 1209.08 86 1 
0.00011515 0.000130334 1.91409e-06 0.00649643 -1.72159e-06 -1.72159e-06 1183.62 87 1 
0.000153748 0.000132841 8.91131e-05 0.00664449 1.1519e-06 1.1519e-06 1171.81 88 1 
0.000174194 0.000128254 8.34503e-05 0.00641576 7.22123e-06 7.22123e-06 1170.78 89 1 
0.000225894 0.000140936 9.02611e-07 0.00704881 -7.68705e-07 -7.68705e-07 1185.06 90 1 
0.000245142 0.000146954 1.55349e-05 0.00735525 5.07017e-06 5.07017e-06 1189.39 91 1 
0.000288983 0.000157973 8.57806e-05 0.00788315 4.03942e-06 4.03942e-06 1194.55 92 1 
0.000295296 0.000162535 5.32883e-06 0.00812784 1.70328e-05 1.70328e-05 1179.24 93 1 
0.000325662 0.00015232 1.03829e-07 0.00762316 1.10903e-05 1.10903e-05 1159.99 94 1 
0.000342999 0.000150207 3.17431e-06 0.00748178 6.0663e-06 6.0663e-06 1186.36 95 1 
1.94028e-05 0.000143875 4.37294e-06 0.00719022 7.79118e-07 7.79118e-07 1198.22 96 1 
5.06526e-05 0.000167612 4.50146e-06 0.00839008 -1.59546e-05 -1.59546e-05 1207.5 97 1 
5.89661e-05 0.000155233 8.3557e-05 0.00774836 2.3207e-05 2.3207e-05 1190.76 98 1 
7.79187e-05 0.000153521 8.57176e-05 0.00768063 1.01536e-05 1.01536e-05 1203.45 99 1 
0.000110207 0.000156284 8.82887e-05 0.00780502 6.53941e-06 6.53941e-06 1175.25 100 1 
0.000132124 0.000150435 3.54398e-06 0.00751405 1.05075e-05 1.05075e-05 1190.85 101 1 
0.000148807 0.000156473 8.08103e-05 0.00781708 7.25352e-06 7.25352e-06 1194.02 102 1 
0.000172224 0.000156026 8.85362e-05 0.00782308 -2.35166e-06 -2.35166e-06 1193.14 103 1 
0.000198847 0.00015071 7.93756e-05 0.00753436 1.26351e-06 1.26351e-06 1184.51 104 1 
0.000237306 0.000160927 8.84354e-05 0.00805194 6.38396e-06 6.38396e-06 1190.01 105 1 
0.000281507 0.000178789 7.38179e-06 0.00893978 2.99389e-06 2.99389e-06 1171.74 106 1 
0.000317351 0.000173895 8.43158e-05 0.00869845 -4.31722e-06 -4.31722e-06 1175.97 107 1 
0.000343483 0.000178518 8.97449e-05 0.00893237 2.74554e-06 2.74554e-06 1205.22 108 1 
0.000354229 0.000180239 8.41848e-05 0.00900364 -1.01949e-05 -1.01949e-05 1196.99 109 1 
3.15321e-05 0.000179481 1.23814e-05 0.00897618 2.01382e-05 2.01382e-05 1201.76 110 1 
5.74838e-05 0.000189596 7.64558e-06 0.00948159 1.69998e-05 1.69998e-05 1203.82 111 1 
9.31111e-05 0.00018752 6.02266e-06 0.00937262 -1.46093e-06 -1.46093e-06 1188.31 112 1 
0.000101059 0.00017956 7.00956e-07 0.0089755 -1.43664e-06 -1.43664e-06 1187.12 113 1 
0.000123365 0.000188666 8.18433e-05 0.00943195 -4.00123e-06 -4.00123e-06 1211.58 114 1 
0.000154051 0.000185395 8.48404e-05 0.00925837 8.04803e-06 8.04803e-06 1206.36 115 1 
0.000168601 0.000180075 1.14713e-05 0.0090101 -1.2272e-05 -1.2272e-05 1186.77 116 1 
0.000194652 0.000170351 1.07951e-05 0.00852361 -1.00502e-05 -1.00502e-05 1209.01 117 1 
0.000226395 0.000185275 8.86891e-05 0.00926941 -1.08464e-05 -1.08464e-05 1191.99 118 1 
0.000253612 0.000180505 1.35468e-05 0.00903922 -6.86399e-06 -6.86399e-06 1169.8 119 1 
0.000254295 0.000177282 5.64526e-06 0.00887533 -1.37851e-05 -1.37851e-05 1187.15 120 1 
0.000334265 0.000204928 8.77814e-05 0.0102764 -9.82134e-06 -9.82134e-06 1204.03 121 1 
0.000349714 0.000203276 9.95237e-06 0.0101633 8.18043e-06 8.18043e-06 1206.25 122 1 
2.03404e-05 0.000204291 3.98743e-06 0.0102193 -2.7879e-05 -2.7879e-05 1178.17 123 1 
5.10825e-05 0.000210302 9.00553e-05 0.0105274 -3.36622e-06 -3.36622e-06 1189.78 124 1 
8.22308e-05 0.000212056 1.32026e-05 0.010586 1.86955e-05 1.86955e-05 1166.42 125 1 
8.35028e-05 0.000206307 1.18212e-05 0.0103154 7.61267e-06 7.61267e-06 1169.91 126 1 
0.00013159 0.000210886 4.65847e-07 0.0105586 1.30291e-05 1.30291e-05 1205 127 1 
0.000125806 0.000191168 8.77084e-05 0.00956859 4.46431e-06 4.46431e-06 1218.44 128 1 
0.000165008 0.000201424 1.67483e-05 0.0100646 7.71772e-06 7.71772e-06 1158.12 129 1 
0.000191285 0.000210987 2.92258e-06 0.0105417 1.03688e-07 1.03688e-07 1207.62 130 1 
0.000220095 0.000205194 8.93324e-05 0.0102649 -5.56833e-07 -5.56833e-07 1201.63 131 1 
0.000230554 0.000203879 8.47947e-05 0.0101856 1.10803e-05 1.10803e-05 1206.39 132 1 
0.000264483 0.000206304 3.83842e-06 0.0102885 5.60002e-06 5.60002e-06 1175.2 133 1 
0.000304154 0.000221324 1.57306e-06 0.0110486 -2.51774e-06 -2.51774e-06 1191.56 134 1 
0.000317042 0.000203412 8.06732e-05 0.0101772 1.23452e-05 1.23452e-05 1204.51 135 1 
1.96416e-05 0.000233469 3.01568e-06 0.011686 5.32854e-06 5.32854e-06 1176.77 136 1 
3.3167e-05 0.000227147 1.38942e-05 0.0113611 -1.29987e-05 -1.29987e-05 1163.14 137 1 
6.29641e-05 0.000225794 9.70194e-07 0.0113138 -2.51929e-05 -2.51929e-05 1187.81 138 1 
9.80738e-05 0.000240521 2.41164e-06 0.0120242 9.8119e-06 9.8119e-06 1184.62 139 1 
0.000124398 0.000231496 7.47324e-06 0.0115731 5.92348e-06 5.92348e-06 1196.27 140 1 
0.000129474 0.000220925 8.3133e-05 0.0110425 -1.54147e-05 -1.54147e-05 1197.51 141 1 
0.000157027 0.000229202 3.84355e-06 0.0114602 8.21169e-06 8.21169e-06 1171.28 142 1 
0.000187362 0.000231083 9.00223e-05 0.0115463 1.18788e-06 1.18788e-06 1207.78 143 1 
0.000188888 0.000220763 7.05089e-06 0.0110412 8.79727e-06 8.79727e-06 1202.08 144 1 
0.000220573 0.000224687 8.63768e-05 0.011232 -7.14554e-06 -7.14554e-06 1178.91 145 1 
0.000251394 0.000228521 2.51517e-06 0.0114216 1.35241e-06 1.35241e-06 1195.73 146 1 
0.000271133 0.000226262 5.67739e-06 0.011321 2.60059e-06 2.60059e-06 1201.97 147 1 
0.000310347 0.000226175 8.69595e-06 0.0113207 -1.05259e-05 -1.05259e-05 1172.25 148 1 
0.000317133 0.00021589 8.63569e-05 0.0107632 -2.17292e-06 -2.17292e-06 1198.07 149 1 
0.000348289 0.000229445 8.71332e-05 0.0114562 7.58796e-06 7.58796e-06 1186.64 150 1 
5.26864e-05 0.000259886 5.66926e-06 0.0129827 1.40698e-05 1.40698e-05 1180.11 151 1 
7.60718e-05 0.000258447 6.31775e-06 0.0129272 1.64909e-06 1.64909e-06 1185.08 152 1 
0.000105817 0.000253072 8.15925e-05 0.0126421 2.82386e-06 2.82386e-06 1178.94 153 1 
0.000111735 0.000250922 8.92318e-05 0.0125525 -2.4863e-06 -2.4863e-06 1188.39 154 1 
0.000141465 0.000248098 8.79291e-05 0.0123961 9.77371e-06 9.77371e-06 1185.37 155 1 
0.000175993 0.000256837 9.35145e-06 0.0128525 -4.01462e-06 -4.01462e-06 1182.47 156 1 
0.000210194 0.000262257 8.37535e-05 0.0131188 -1.13551e-05 -1.13551e-05 1167.21 157 1 
0.000228931 0.000267869 2.36758e-06 0.0133821 7.92126e-07 7.92126e-07 1178.62 158 1 
0.000239497 0.000246753 8.27689e-06 0.0123387 -3.38131e-06 -3.38131e-06 1195.26 159 1 
0.000264772 0.00025017 7.93253e-05 0.0124926 1.44707e-05 1.44707e-05 1187.47 160 1 
0.000305914 0.00026191 4.95593e-06 0.0130816 -7.18449e-06 -7.18449e-06 1169.31 161 1 
0.000337514 0.000267843 8.45822e-05 0.0134006 7.46061e-06 7.46061e-06 1208.93 162 1 
0.000349377 0.000256226 6.46591e-06 0.0128197 1.75033e-06 1.75033e-06 1204.79 163 1 
0.000359618 0.000252663 7.39945e-06 0.012638 -1.44439e-05 -1.44439e-05 1209.53 164 1 
3.25196e-05 0.00024938 3.35414e-06 0.0124715 -6.11323e-07 -6.11323e-07 1189.64 165 1 
0.00010017 0.000285239 7.94187e-05 0.0142502 3.28495e-06 3.28495e-06 1183.5 166 1 
0.000113944 0.00027347 4.06628e-06 0.0136882 2.63322e-06 2.63322e-06 1183.07 167 1 
0.000146709 0.000281177 6.14421e-06 0.0140681 4.5109e-06 4.5109e-06 1208.92 168 1 
0.000150898 0.000266734 6.48887e-06 0.0133297 2.03403e-08 2.03403e-08 1203.64 169 1 
0.000185802 0.000280521 8.7417e-06 0.0140305 -5.76887e-06 -5.76887e-06 1168.14 170 1 
0.000210479 0.000274241 5.84223e-06 0.0137093 3.58616e-06 3.58616e-06 1186.17 171 1 
0.000224577 0.000267631 8.31662e-05 0.0133937 3.61174e-08 3.61174e-08 1172.49 172 1 
0.000258376 0.000279669 9.8523e-06 0.0139855 3.16919e-06 3.16919e-06 1202.54 173 1 
0.000297244 0.000285646 8.93975e-05 0.0142696 -1.12241e-05 -1.12241e-05 1192.34 174 1 
0.00031168 0.000282595 4.23139e-06 0.0141374 -7.1049e-06 -7.1049e-06 1185.27 175 1 
0.000346116 0.000278274 1.71254e-05 0.013906 1.071e-06 1.071e-06 1193.16 176 1 
0.000355622 0.000272281 1.25467e-06 0.0136211 2.4226e-06 2.4226e-06 1199.92 177 1 
2.59518e-05 0.000289245 8.83034e-07 0.014463 -7.7996e-06 -7.7996e-06 1161.55 178 1 
5.68797e-05 0.000285884 2.16115e-06 0.0142868 -1.36453e-05 -1.36453e-05 1187.62 179 1 
6.03997e-05 0.000276304 8.68073e-05 0.0138327 2.70808e-06 2.70808e-06 1186.74 180 1 
0.000143901 0.000310273 4.42806e-06 0.015515 2.30321e-06 2.30321e-06 1190.4 181 1 
0.000135248 0.000285839 8.85992e-05 0.0142761 8.91527e-06 8.91527e-06 1203.76 182 1 
0.000184512 0.000307097 8.72012e-06 0.0153521 1.31068e-05 1.31068e-05 1170.59 183 1 
0.000201 0.000303402 2.49195e-06 0.0151621 2.44494e-05 2.44494e-05 1192.85 184 1 
0.000227733 0.000296232 1.80076e-05 0.0148251 3.14148e-06 3.14148e-06 1148.13 185 1 
0.000234415 0.000298522 8.34529e-05 0.0149422 -1.4484e-05 -1.4484e-05 1163.16 186 1 
0.000261981 0.000299491 8.73804e-05 0.0149843 -1.43481e-05 -1.43481e-05 1182.89 187 1 
0.000292025 0.000295729 7.87144e-05 0.0147739 1.55631e-05 1.55631e-05 1176.3 188 1 
0.000319879 0.000305023 1.54052e-05 0.0152403 -3.1221e-06 -3.1221e-06 1158.36 189 1 
0.000349315 0.000299419 8.6738e-05 0.0149573 1.52117e-05 1.52117e-05 1195.54 190 1 
2.22666e-05 0.00030888 1.37005e-06 0.0154438 -2.2048e-05 -2.2048e-05 1175.69 191 1 
4.25536e-05 0.000308113 8.85757e-05 0.0154287 2.67413e-06 2.67413e-06 1178.04 192 1 
7.83519e-05 0.000316655 1.02387e-05 0.0158325 -1.11423e-05 -1.11423e-05 1205.44 193 1 
7.96142e-05 0.000297173 8.69706e-07 0.0148539 9.66227e-06 9.66227e-06 1195.37 194 1 
0.000121601 0.000312774 3.12311e-06 0.0156273 1.51132e-05 1.51132e-05 1162.69 195 1 
0.000168793 0.000331956 8.72596e-05 0.0166019 -1.33372e-05 -1.33372e-05 1185.66 196 1 
0.000203615 0.000329664 1.50732e-05 0.0164619 -1.94435e-05 -1.94435e-05 1161.86 197 1 
0.000218153 0.000325336 8.82094e-05 0.0162743 8.40803e-06 8.40803e-06 1164.47 198 1 
0.000234872 0.00032383 8.86409e-05 0.0162012 2.29514e-06 2.29514e-06 1167.6 199 1 
0.000263101 0.000326766 2.58515e-06 0.0163251 1.12999e-05 1.12999e-05 1164.04 200 1 
0.000292839 0.000324771 4.53708e-06 0.0162261 5.88096e-06 5.88096e-06 1140.8 201 1 
0.000325251 0.000333889 1.03433e-06 0.0167076 -1.94267e-05 -1.94267e-05 1199.15 202 1 
0.000338166 0.000328148 8.38674e-05 0.0164198 1.04072e-05 1.04072e-05 1205.58 203 1 
0.000355249 0.000331227 6.51437e-06 0.016554 6.18023e-06 6.18023e-06 1205.21 204 1 
1.67671e-05 0.000324616 5.159e-07 0.0162131 5.29787e-06 5.29787e-06 1174.34 205 1 
5.21174e-05 0.000323918 8.04841e-06 0.0161971 7.50661e-06 7.50661e-06 1167.2 206 1 
7.14834e-05 0.000322138 9.37882e-06 0.016109 2.28716e-07 2.28716e-07 1193.45 207 1 
0.000100596 0.000333299 1.45005e-05 0.0166897 -1.59768e-05 -1.59768e-05 1188.16 208 1 
0.000125746 0.000327629 8.62988e-05 0.0163791 7.97678e-06 7.97678e-06 1163.66 209 1 
0.000150032 0.000327993 3.1248e-06 0.0163878 1.23061e-05 1.23061e-05 1191.12 210 1 
0.00021878 0.000349507 1.10377e-05 0.0174715 -8.17685e-06 -8.17685e-06 1211.14 211 1 
0.000233071 0.000347567 2.43798e-06 0.0173752 1.16401e-05 1.16401e-05 1212.94 212 1 
0.000260393 0.00035708 4.41966e-07 0.017843 -2.13515e-06 -2.13515e-06 1186.3 213 1 
0.000277626 0.000351821 7.63099e-07 0.0175955 1.35603e-05 1.35603e-05 1162.56 214 1 
0.000299368 0.000349676 8.76849e-05 0.017483 1.69664e-06 1.69664e-06 1155.51 215 1 
0.000329175 0.000348237 1.32892e-06 0.017401 1.34834e-05 1.34834e-05 1195.61 216 1 
0.000351616 0.000357341 4.06232e-06 0.0178707 -7.17347e-06 -7.17347e-06 1182.91 217 1 
2.21129e-05 0.000351086 5.40689e-06 0.0175582 6.6682e-06 6.6682e-06 1170.69 218 1 
4.34468e-05 0.000348809 1.28903e-06 0.0174543 -9.59805e-06 -9.59805e-06 1177.13 219 1 
5.61184e-05 0.000352312 6.32616e-06 0.0176165 -3.38469e-06 -3.38469e-06 1172.33 220 1 
8.70359e-05 0.000349182 8.47671e-06 0.0174573 4.29519e-06 4.29519e-06 1196 221 1 
0.000120731 0.000348316 8.40057e-05 0.017423 -1.33766e-05 -1.33766e-05 1143.68 222 1 
0.00014923 0.000353765 7.04857e-06 0.0177143 -1.20973e-06 -1.20973e-06 1175.5 223 1 
0.000164815 0.000356067 7.87863e-06 0.0178039 2.33891e-06 2.33891e-06 1177.71 224 1 
0.000176531 0.000341629 2.3331e-06 0.017074 9.7986e-07 9.7986e-07 1171.49 225 1 
0.000242459 0.000365793 2.13415e-06 0.0182726 9.28258e-06 9.28258e-06 1192.85 226 1 
0.000292777 0.000383825 1.34922e-05 0.0191953 -8.58439e-06 -8.58439e-06 1203.81 227 1 
0.000298983 0.000378541 4.82494e-06 0.0189254 -1.30503e-06 -1.30503e-06 1204.34 228 1 
0.000322951 0.000376479 8.20657e-05 0.0188394 9.1155e-06 9.1155e-06 1184.03 229 1 
0.000349155 0.000375278 1.88933e-05 0.0187689 -5.80335e-06 -5.80335e-06 1175.7 230 1 
1.70601e-05 0.000378879 5.14767e-06 0.0189307 -4.84009e-06 -4.84009e-06 1175.47 231 1 
2.08648e-05 0.000372679 8.84395e-05 0.0186478 -1.10727e-05 -1.10727e-05 1189.37 232 1 
5.12051e-05 0.00037222 1.52972e-05 0.0186071 -1.11845e-05 -1.11845e-05 1181.41 233 1 
8.83916e-05 0.000377549 4.81081e-06 0.0188834 -2.30533e-06 -2.30533e-06 1161.43 234 1 
0.000107939 0.000377591 7.53021e-06 0.0188744 1.61369e-06 1.61369e-06 1153.05 235 1 
0.000139223 0.000378476 3.95368e-06 0.0189215 1.66817e-05 1.66817e-05 1171.37 236 1 
0.000154506 0.00038104 8.82139e-05 0.0190245 -3.95179e-06 -3.95179e-06 1202.22 237 1 
0.000188456 0.000379126 8.2547e-05 0.0189502 1.96418e-05 1.96418e-05 1174.65 238 1 
0.000193672 0.000369827 6.84538e-06 0.0185122 -1.51816e-05 -1.51816e-05 1165.37 239 1 
0.000239562 0.000377295 4.80898e-06 0.0188757 -1.61087e-05 -1.61087e-05 1167.34 240 1 
0.000299165 0.000408884 8.12173e-05 0.020465 -2.3939e-05 -2.3939e-05 1187.55 241 1 
0.000302374 0.000397747 8.37705e-05 0.0198723 1.65866e-05 1.65866e-05 1191.46 242 1 
0.000335933 0.00040025 3.35592e-06 0.0200299 -2.00434e-05 -2.00434e-05 1175.1 243 1 
1.29352e-05 0.000402712 8.38223e-06 0.0201287 2.13836e-05 2.13836e-05 1149.55 244 1 
3.13911e-05 0.000409873 7.54308e-05 0.0204854 2.71549e-05 2.71549e-05 1155.11 245 1 
4.30595e-05 0.000403255 9.00718e-05 0.0201729 -1.23117e-06 -1.23117e-06 1174.89 246 1 
6.85085e-05 0.000395773 8.85778e-05 0.0198128 -3.47047e-06 -3.47047e-06 1166.35 247 1 
0.000110647 0.000407342 8.9964e-05 0.0203703 7.32132e-06 7.32132e-06 1167.25 248 1 
0.000121064 0.000395979 4.22737e-06 0.0198028 -3.42174e-06 -3.42174e-06 1164.72 249 1 
0.000145922 0.000400175 8.46976e-05 0.020021 8.91742e-06 8.91742e-06 1163.87 250 1 
0.000154456 0.000399763 4.12144e-06 0.0199917 -6.35235e-06 -6.35235e-06 1180.97 251 1 
0.000205001 0.000399904 3.15087e-06 0.0199935 6.09019e-06 6.09019e-06 1198.27 252 1 
0.000229152 0.000403454 1.14812e-05 0.0201892 -2.1945e-05 -2.1945e-05 1175.51 253 1 
0.000251267 0.000406489 1.06378e-05 0.0203317 -1.29345e-05 -1.29345e-05 1141.79 254 1 
0.000278514 0.000409885 3.93355e-06 0.0204842 1.94844e-05 1.94844e-05 1178.61 255 1 
0.000336313 0.000422377 1.1055e-05 0.0211212 -1.09564e-05 -1.09564e-05 1168.6 256 1 
0.000349745 0.000414196 4.83414e-06 0.0207149 5.86118e-06 5.86118e-06 1165.1 257 1 
1.00547e-05 0.000419545 4.57199e-06 0.0209706 8.23483e-07 8.23483e-07 1147.05 258 1 
5.86291e-05 0.000434887 9.00316e-05 0.02174 4.92261e-06 4.92261e-06 1179.53 259 1 
6.24643e-05 0.00042446 8.98188e-05 0.0212436 -4.39543e-06 -4.39543e-06 1179.74 260 1 
9.32927e-05 0.000427609 8.64258e-05 0.021393 -1.40487e-05 -1.40487e-05 1182.24 261 1 
0.000115646 0.000422968 1.08598e-05 0.0211569 -4.17047e-06 -4.17047e-06 1191.33 262 1 
0.000142308 0.000423464 5.51532e-06 0.021161 -8.77564e-06 -8.77564e-06 1158.51 263 1 
0.000168945 0.000431131 1.22997e-05 0.0215553 6.75862e-06 6.75862e-06 1171.47 264 1 
0.000198411 0.000440957 8.53867e-05 0.0220311 1.19338e-05 1.19338e-05 1165.04 265 1 
0.0001978 0.000415253 8.76103e-05 0.0207502 -9.17053e-07 -9.17053e-07 1190.3 266 1 
0.000234405 0.000424125 9.00034e-05 0.0212081 9.60422e-07 9.60422e-07 1168.72 267 1 
0.00026603 0.000430796 8.95403e-05 0.0215471 6.45798e-06 6.45798e-06 1177.86 268 1 
0.000286703 0.000431736 3.02798e-06 0.0215867 -9.33869e-06 -9.33869e-06 1184.62 269 1 
0.000315237 0.000424254 8.64499e-05 0.0212095 -4.23625e-06 -4.23625e-06 1177.8 270 1 
9.69996e-06 0.000452522 8.7021e-06 0.0226434 -6.77243e-06 -6.77243e-06 1176.3 271 1 
3.05467e-05 0.000446546 2.74954e-06 0.0223384 -3.2314e-06 -3.2314e-06 1168.32 272 1 
6.09544e-05 0.000459605 6.78093e-06 0.0229808 -7.3877e-06 -7.3877e-06 1185.45 273 1 
6.53087e-05 0.000441181 4.19291e-06 0.022039 -2.33277e-06 -2.33277e-06 1183.13 274 1 
0.000114818 0.000456808 1.54638e-05 0.0228215 2.62955e-06 2.62955e-06 1169.27 275 1 
0.000121084 0.000442077 1.70616e-06 0.0221157 1.42438e-08 1.42438e-08 1163.2 276 1 
0.00016549 0.000448022 6.48423e-06 0.022396 -1.41325e-05 -1.41325e-05 1182.8 277 1 
0.000190765 0.000455933 3.4279e-06 0.0227795 1.08187e-05 1.08187e-05 1147.49 278 1 
0.000214633 0.000462938 7.86295e-05 0.0231452 5.59289e-06 5.59289e-06 1179.48 279 1 
0.000226931 0.000447375 8.13843e-06 0.0223568 1.18321e-05 1.18321e-05 1172.41 280 1 
0.000264838 0.000449792 7.94272e-05 0.0224854 1.4042e-05 1.4042e-05 1179.74 281 1 
0.000257029 0.000439156 1.48149e-06 0.0219454 -4.91578e-06 -4.91578e-06 1178.29 282 1 
0.000287984 0.000437935 3.01721e-06 0.0218918 -2.16293e-06 -2.16293e-06 1179.43 283 1 
0.000326415 0.000443594 1.16279e-05 0.0221657 3.29541e-06 3.29541e-06 1182.88 284 1 
0.000330853 0.000448166 7.91815e-06 0.0224066 2.05506e-05 2.05506e-05 1186.53 285 1 
8.41479e-05 1.03579e-05 4.0224e-05 0.000513113 -4.40014e-06 -4.40014e-06 1178.28 286 1 
0.000253389 0.000900143 3.07862e-05 0.0450152 -1.51605e-05 -1.51605e-05 1259.56 287 1 
0.000351391 0.000885246 2.49106e-05 0.0442469 1.20711e-06 1.20711e-06 1195.79 288 1 
0.000365624 0.000880337 3.11532e-05 0.0440132 2.13166e-06 2.13166e-06 1171.21 289 1 
0.000176485 1.23348e-05 3.53877e-05 0.000614591 -5.8853e-06 -5.8853e-06 1107.91 290 1 
0.000230196 8.12168e-06 2.60134e-05 0.000407294 -9.85191e-06 -9.85191e-06 1223.48 291 1 
0.000227226 2.22337e-05 2.75341e-05 0.0011075 4.45148e-06 4.45148e-06 1212.4 292 1 
0.000105849 0.000892739 2.68224e-05 0.0446289 7.79834e-07 7.79834e-07 1187.11 293 1 
4.85985e-05 0.000899995 3.12275e-05 0.0450017 -7.6801e-06 -7.6801e-06 1288.79 294 1 
0.000151715 0.00089066 2.55105e-05 0.044543 6.65683e-06 6.65683e-06 1203.85 295 1 
0.000332907 1.33663e-05 3.04476e-05 0.00069028 -4.28037e-07 -4.28037e-07 1193.16 296 1 
4.20525e-06 2.21424e-05 3.23541e-05 0.00109866 2.0564e-05 2.0564e-05 1190.17 297 1 
0.000220249 0.000889247 3.06832e-05 0.0444449 3.32402e-06 3.32402e-06 1174.07 298 1 
0.000255921 0.000891674 2.93779e-05 0.0445899 6.07094e-06 6.07094e-06 1259.48 299 1 
0.000265504 0.000891658 2.62946e-05 0.0445956 -1.25389e-05 -1.25389e-05 1260.83 300 1 
7.35015e-05 2.90058e-05 3.11567e-05 0.00143888 -4.23683e-06 -4.23683e-06 1241.92 301 1 
0.000100266 3.34037e-05 2.59142e-05 0.00166429 7.9471e-06 7.9471e-06 1218.69 302 1 
0.000128455 3.29726e-05 3.24524e-05 0.00164533 7.85047e-06 7.85047e-06 1184.68 303 1 
0.000156415 3.79591e-05 3.1023e-05 0.00188266 -4.07773e-06 -4.07773e-06 1182.75 304 1 
0.000179884 3.35939e-05 1.69887e-05 0.00167658 -7.24066e-07 -7.24066e-07 1203.2 305 1 
0.000202995 3.13314e-05 2.22676e-05 0.00157609 -1.32042e-05 -1.32042e-05 1213.17 306 1 
0.000227049 4.11639e-05 3.24699e-05 0.00205964 -1.69549e-05 -1.69549e-05 1200.06 307 1 
0.000244593 3.86829e-05 1.9844e-05 0.00192151 1.01995e-05 1.01995e-05 1180.15 308 1 
0.00027025 3.19417e-05 2.84583e-05 0.00158407 8.73502e-06 8.73502e-06 1206.52 309 1 
0.000296991 2.6111e-05 2.34677e-05 0.00131563 -7.24726e-06 -7.24726e-06 1198.05 310 1 
0.000311756 3.66345e-05 3.49704e-05 0.00181312 2.03881e-05 2.03881e-05 1216.23 311 1 
0.000345119 4.15339e-05 3.68866e-05 0.00208451 1.01643e-06 1.01643e-06 1230.53 312 1 
7.73332e-06 4.46039e-05 2.40054e-05 0.00224207 -7.3559e-06 -7.3559e-06 1193.7 313 1 
5.20823e-05 3.59752e-05 2.52445e-05 0.00179263 1.79309e-06 1.79309e-06 1254.25 314 1 
6.31134e-05 4.55977e-05 2.23113e-05 0.00227616 3.2581e-07 3.2581e-07 1253.24 315 1 
9.40224e-05 4.86582e-05 3.45697e-05 0.00244607 3.84766e-06 3.84766e-06 1220.84 316 1 
0.000119602 5.67694e-05 3.33369e-05 0.00284253 2.76485e-06 2.76485e-06 1217.24 317 1 
0.000149855 5.12676e-05 3.16998e-05 0.00256389 7.63705e-06 7.63705e-06 1195.4 318 1 
0.000177747 6.19427e-05 2.44926e-05 0.0031162 3.44658e-06 3.44658e-06 1209.03 319 1 
0.000197789 6.54201e-05 2.19651e-05 0.00325161 6.17239e-06 6.17239e-06 1222.62 320 1 
0.000208019 5.11304e-05 3.43044e-05 0.00253545 9.22452e-06 9.22452e-06 1230.18 321 1 
0.000263293 6.82393e-05 2.98327e-05 0.00341401 -2.60117e-05 -2.60117e-05 1222.46 322 1 
0.000270105 5.66228e-05 2.84279e-05 0.00281568 2.70178e-06 2.70178e-06 1221.16 323 1 
0.000296967 5.54873e-05 2.667e-05 0.00278632 5.12415e-06 5.12415e-06 1213.32 324 1 
0.000328704 5.12509e-05 2.71473e-05 0.00255652 9.15156e-06 9.15156e-06 1215.1 325 1 
0.000351166 6.68272e-05 2.26831e-05 0.00333831 -1.18578e-05 -1.18578e-05 1199.53 326 1 
5.01969e-06 5.92164e-05 3.05594e-05 0.00294215 2.61836e-05 2.61836e-05 1199.74 327 1 
2.99732e-05 5.89117e-05 3.03189e-05 0.00294779 2.42314e-05 2.42314e-05 1204.45 328 1 
5.18484e-05 6.39704e-05 1.98278e-05 0.00320558 1.56743e-05 1.56743e-05 1228.96 329 1 
8.31256e-05 6.33714e-05 2.77597e-05 0.00316214 1.20017e-05 1.20017e-05 1224.26 330 1 
0.000139988 7.20281e-05 3.19218e-05 0.00359153 1.2195e-05 1.2195e-05 1191.05 331 1 
0.000179586 9.21121e-05 3.10197e-05 0.00459404 4.46166e-06 4.46166e-06 1223.34 332 1 
0.000199305 8.49941e-05 1.88304e-05 0.0042251 7.32666e-06 7.32666e-06 1215.43 333 1 
0.000198267 7.90081e-05 3.63778e-05 0.00393843 4.06658e-06 4.06658e-06 1228.54 334 1 
0.000239822 7.83823e-05 2.64845e-05 0.0039201 1.76335e-05 1.76335e-05 1185.12 335 1 
0.00026088 8.63563e-05 2.65549e-05 0.00430944 -1.43541e-05 -1.43541e-05 1204.39 336 1 
0.000281218 8.02346e-05 1.8346e-05 0.00398464 1.04973e-05 1.04973e-05 1190.71 337 1 
0.000307416 8.2117e-05 1.95736e-05 0.00410463 -2.83558e-06 -2.83558e-06 1184.42 338 1 
0.000326588 8.50145e-05 3.62758e-05 0.00425501 9.06857e-06 9.06857e-06 1208.63 339 1 
7.37998e-06 9.14435e-05 3.56501e-05 0.00455398 -9.88641e-06 -9.88641e-06 1179.85 340 1 
1.75281e-05 8.97744e-05 1.24849e-05 0.00448904 6.6834e-06 6.6834e-06 1215.18 341 1 
4.33394e-05 8.10462e-05 3.25631e-05 0.00404867 -1.37467e-06 -1.37467e-06 1219.73 342 1 
7.00924e-05 8.51422e-05 2.62952e-05 0.00426453 -1.39482e-06 -1.39482e-06 1208.07 343 1 
8.81268e-05 8.67306e-05 2.70957e-05 0.00433319 2.19387e-06 2.19387e-06 1205.31 344 1 
0.000110943 8.35928e-05 2.33339e-05 0.00418216 -9.28509e-06 -9.28509e-06 1202.94 345 1 
0.000162342 9.54999e-05 3.88767e-05 0.0047651 -8.04276e-06 -8.04276e-06 1199.21 346 1 
0.000202503 0.000108861 2.97845e-05 0.00545301 -7.32749e-06 -7.32749e-06 1206.23 347 1 
0.00022402 0.000103697 2.60676e-05 0.00518628 2.72644e-06 2.72644e-06 1190.39 348 1 
0.000248303 0.000112494 2.88241e-05 0.00562267 1.41795e-05 1.41795e-05 1199.31 349 1 