ITEM: TIMESTEP
56000
ITEM: NUMBER OF ATOMS
1024
ITEM: BOX BOUNDS pp pp pp
0 0.0008
0 0.0008
-1e-06 1e-06
ITEM: ATOMS id type xu yu vx vy c_rho_peratom 
1 2 0.000359619 0.000377018 0.0779724 -0.0770738 1070.68 
2 2 0.000357585 0.00036804 0.00691498 -0.0825039 1019.73 
3 2 0.000343463 0.000375868 0.0308288 0.0266113 1177.75 
4 2 0.000336497 0.000384743 0.0108916 -0.0395689 1225.98 
5 2 0.000323372 0.000396732 -0.0235132 0.0352852 1155.72 
6 2 0.000321047 0.000396132 0.00851854 0.013943 1144.34 
7 2 0.000290052 0.000395987 0.0653432 0.0211767 1122.5 
8 2 0.000279498 0.000395003 0.0210573 0.0214123 1178.63 
9 2 0.000273261 0.000399727 -0.0414347 0.00112556 1166.27 
10 2 0.000273802 0.000395867 0.0370152 -0.0159546 1180.83 
11 1 0.000920414 0.000637323 0.0448241 -0.0151327 1184.14 
12 1 0.000682735 0.000636805 0.028873 -0.0274522 1083.33 
13 1 0.000701625 0.000642752 -0.0468551 -0.0347806 1119 
14 1 0.000710803 0.000376053 -0.0931262 0.0439241 1041.53 
15 1 0.000722241 0.000522152 -0.037757 -0.0367752 998.687 
16 1 0.000793747 0.000484455 -0.00741576 -0.000286932 1229.78 
17 1 0.000771784 0.000393654 -0.0744303 0.0611047 914.162 
18 1 0.000793776 0.000662924 -0.0156997 -1.06843e-05 1028.86 
19 1 0.000794972 0.000506357 -0.0335657 -0.0439119 1103.5 
20 1 0.000960348 0.000578422 0.0187008 0.0576484 971.534 
21 1 0.000942025 0.000172026 -0.0289626 -0.0181823 1062.06 
22 1 0.00103458 0.000477511 -0.0095621 -0.01007 942.516 
23 1 0.000875265 0.000253618 -0.0843891 -0.0336481 729.68 
24 1 0.000907399 0.000246003 -0.00708222 -0.00409783 838.201 
25 1 0.00120218 0.000190649 -0.0665699 -0.0540282 972.766 
26 1 0.000863414 0.000329952 0.0210038 -0.00579329 936.675 
27 1 0.00104678 0.000153329 -0.0260435 0.0155377 1118.71 
28 1 0.000878107 0.000439803 -0.0530529 -0.0192151 1026.32 
29 1 0.00107437 0.000338037 0.015221 -0.0379369 981.804 
30 1 0.00103539 0.000244144 -0.0429847 -0.0589199 1068.85 
31 1 0.000680325 0.000245384 0.00424848 -0.084824 1000.08 
32 1 0.00121858 0.00030473 0.0186924 0.0241044 1156.23 
33 1 0.000175395 0.000236421 -0.0295946 0.0141446 1039.24 
34 1 0.00027039 0.000128466 0.0595473 0.0551723 1151.8 
35 1 0.00030362 0.00036354 0.00944126 -0.0198651 987.81 
36 1 0.000332958 0.000514758 -0.0485346 -0.00708926 921.406 
37 1 0.000133575 0.000519079 0.0261331 -0.103616 1015.8 
38 1 0.000314576 0.000517452 -0.0592886 0.000814516 1017.78 
39 1 0.000450951 0.000547198 0.0916131 0.0132408 1171.16 
40 1 0.000493271 0.000386832 -0.00593852 -0.027131 1086.29 
41 1 0.000550326 0.000421537 0.0643035 0.026745 1038.44 
42 1 0.000602027 0.000309256 0.0170033 0.0183197 1152.1 
43 1 0.000605569 0.000683419 0.0282869 0.0247653 941.773 
44 1 0.000710392 0.000344244 0.0643164 -0.0171767 1058.56 
45 1 0.000841078 0.000476195 0.0254797 -0.0147512 927.471 
46 1 0.000887699 0.000621562 -0.0213533 0.00804623 1051.19 
47 1 0.000643366 0.000509253 0.0558225 0.00106066 995.843 
48 1 0.000628459 0.000324982 0.015138 0.0159936 1074.51 
49 1 0.000755638 0.000227418 -0.013965 -0.0287967 1088.63 
50 1 0.000765379 0.000465728 0.0125081 -0.0466283 1075.05 
51 1 0.000700105 0.000504969 -0.000685381 -0.0376448 1164.79 
52 1 0.000706486 0.000131197 0.0175362 0.0169372 1084.31 
53 1 0.000836363 0.000421902 0.0599355 -0.0699382 1017.88 
54 1 0.000968771 0.000385966 -0.00930568 -0.0555848 1064.72 
55 1 0.00081375 0.000155974 -0.0106263 -0.0101811 1077.98 
56 1 0.000967646 0.000254474 0.0297931 -0.0124507 991.321 
57 1 0.00129709 0.000555338 -0.029961 0.0290874 1090.57 
58 1 0.000793992 0.000349352 0.0775436 0.00952616 1035.1 
59 1 0.000917168 0.000378148 0.0117304 -0.0949646 932.949 
60 1 0.00131018 0.0004032 -0.00455238 -0.0655852 1106.45 
61 1 0.0011613 0.000583419 -0.0481574 0.0946909 1003.45 
62 1 0.000795049 0.000294386 0.0140109 -0.0103855 1084.74 
63 1 0.00102883 0.000436531 0.0296219 0.0900343 1135.72 
64 1 0.000995999 0.000218482 0.0220631 0.00628723 1056.39 
65 1 0.000182846 0.000515156 -0.0316907 0.0174169 1131.47 
66 1 0.000520119 0.000369736 0.0681794 0.021237 1049.42 
67 1 0.00046404 0.000528855 0.0326923 -0.0433802 1189.76 
68 1 0.000449316 0.000603722 -0.0404242 -0.00779332 1152.5 
69 1 0.000146736 0.000519636 0.0513328 0.0570774 996.483 
70 1 0.000684661 0.000336048 -0.0396632 0.0160912 1008.6 
71 1 0.000471996 0.00049742 0.0406052 -0.043467 1107.97 
72 1 0.000608511 0.000373842 0.0288389 -0.0219517 992.038 
73 1 0.000287382 0.000518041 0.0382108 -0.00164511 1113.18 
74 1 0.000662717 0.000555683 -0.0367986 -0.0164774 1050.14 
75 1 0.000569777 0.000771301 0.0357533 -0.00774565 1004.63 
76 1 0.000590991 0.000613371 0.0207895 0.0215727 1058.36 
77 1 0.000720209 0.000564285 -0.0876757 0.0551638 1108.98 
78 1 0.000678567 0.000514528 0.0241648 0.0431449 1100.32 
79 1 0.000404258 0.000274631 0.018722 -0.0293666 1029.58 
80 1 0.000666162 0.000212641 -0.029941 0.0274814 1108.22 
81 1 6.94854e-05 0.000200421 -0.0604477 -0.0124961 975.639 
82 1 0.000747333 0.00036475 -0.030892 0.0252379 1016.05 
83 1 0.000722198 0.000643516 -0.0271082 0.0578011 1085.93 
84 1 0.000961088 0.000308136 0.035688 -0.0484871 1025.52 
85 1 0.00101258 0.000174557 0.0197746 -0.0863161 1162.23 
86 1 0.0006918 0.000680777 0.0075959 0.00461861 948.519 
87 1 0.000944626 0.000410921 0.0129194 0.0210585 966.978 
88 1 0.00115278 0.000246639 0.0414687 -0.00995117 1050.27 
89 1 0.000816841 0.000255145 -0.0212487 0.00190055 1051.65 
90 1 0.000972497 0.00020739 -0.0205173 -0.0262072 994.799 
91 1 0.000774457 0.000238182 -0.0132019 0.053275 1134.84 
92 1 0.000993838 0.000537334 -0.0241016 -0.0349988 1085.47 
93 1 0.00101938 0.000310904 0.00399456 0.0304754 1006.93 
94 1 0.00114763 0.000464478 -0.0209968 0.0197678 992.862 
95 1 0.00111662 0.000351449 0.110576 0.011377 939.941 
96 1 0.00115628 0.000461357 -0.0522684 0.0672594 1053.12 
97 1 0.000294515 0.000922054 -0.0293388 0.0581869 1167.46 
98 1 0.000238774 0.000270847 -0.027761 0.0400404 1158.55 
99 1 7.19333e-05 0.000305463 0.0285467 -0.0208534 1088.41 
100 1 0.000300259 0.000618551 0.0711333 -0.0234701 961.804 
101 1 0.000415157 0.000528451 0.037304 -0.117958 1120.85 
102 1 0.000603137 0.000433061 0.0395255 -0.000435176 1021.1 
103 1 0.000623268 0.00104089 -0.0354859 0.0547605 1102.37 
104 1 0.000709044 0.000517748 0.00531731 0.0567843 1139.91 
105 1 0.000444308 0.000577986 0.00383992 0.025788 1098.4 
106 1 0.000283014 0.000246876 0.0201823 -0.0481258 1034.73 
107 1 0.000812128 0.000534994 0.0131228 0.0155013 869.09 
108 1 0.000620593 0.000420389 0.0241042 -0.0311268 989.598 
109 1 0.000587851 0.000602432 -0.0327689 0.0193086 1032.92 
110 1 0.000597567 0.000413021 -0.0237334 -0.00980678 945.907 
111 1 0.000714585 0.000491199 0.00133883 -0.0254526 1049.75 
112 1 0.000688288 0.000532061 -0.000145056 -0.00102026 1101.72 
113 1 0.000677018 0.000793379 5.82107e-05 -0.0628881 987.781 
114 1 0.000600649 0.000450249 0.052762 0.023309 1018.21 
115 1 0.000649318 0.000648486 0.0257725 0.0357427 1003.03 
116 1 0.000768675 0.000383729 0.00937164 -0.0241896 954.975 
117 1 0.00108281 0.000279687 -0.0145523 -0.0223626 982.483 
118 1 0.000965847 0.000444883 0.00870636 0.00383966 1063.37 
119 1 0.00100135 0.000314707 -0.0116755 -0.0527225 1128.11 
120 1 0.000916916 0.000623212 -0.0818206 -0.0285608 1117.52 
121 1 0.00106578 0.000367176 -0.0379917 0.0833285 1060.59 
122 1 0.00107572 0.000570866 0.0252706 -0.0842247 1105.61 
123 1 0.00100753 0.000800048 0.019676 0.0525791 1137.73 
124 1 0.000871677 0.000556089 -0.00374537 -0.0146375 1096.28 
125 1 0.00099463 0.000490938 -0.016568 0.0581544 1120.11 
126 1 0.00109192 0.000448447 -0.038151 -0.0236105 1098.19 
127 1 0.000586626 0.000460886 -0.0207077 0.0140309 1032.35 
128 1 0.000957917 0.000498267 -0.0553924 0.0187507 962.301 
129 1 0.000205748 0.000184647 0.0406853 0.0339419 1149.1 
130 1 0.000134533 0.000205555 0.0217702 -0.0383466 1093.52 
131 1 0.000423089 0.000455857 0.00234586 -0.053076 1109.31 
132 1 0.000692971 0.000559658 0.0302135 -0.00227755 1103.42 
133 1 0.000433283 0.000379253 -0.00535155 -0.00903601 1093.77 
134 1 0.000388167 0.000461498 0.0421969 0.0670777 1111.84 
135 1 0.00024112 0.000276923 0.0349568 -0.0142822 1127.52 
136 1 0.000175754 0.00052613 -0.00824119 -0.0556842 1090.16 
137 1 0.000641053 0.000559488 -0.0461587 -0.0330901 1162.77 
138 1 0.000293192 0.000578565 -0.0409035 -0.0739972 1161.87 
139 1 0.000637663 0.000582005 -0.00402994 0.0937907 1091.53 
140 1 0.00047832 0.000712415 0.0157599 0.00865716 1015.32 
141 1 0.000685201 0.000570081 -0.0426768 -0.0274774 1078.53 
142 1 0.000713303 0.0003072 0.0321474 -0.0158057 1005.29 
143 1 0.000483488 0.000828727 -0.031331 0.0405442 1053.42 
144 1 0.000752859 0.000472883 -0.0314857 -0.0646934 1013.57 
145 1 0.000650154 0.000444728 0.0653316 -0.0341325 1073.12 
146 1 0.000663807 0.0006773 -0.0236931 0.0505784 901.319 
147 1 0.00102266 0.00067437 0.0359616 0.124388 1000.91 
148 1 0.000987179 0.000382687 -0.0198953 0.00305943 1085.09 
149 1 0.000975563 0.000727641 -0.0114369 -0.0196576 965.746 
150 1 0.000757122 0.000203286 0.0519074 0.0344253 1014.04 
151 1 0.00111183 0.000824756 0.0169057 0.0414273 904.101 
152 1 0.000623931 0.000213048 -0.0342518 -0.0204983 983.778 
153 1 0.00102642 0.000511612 0.0200613 0.0365066 992.169 
154 1 0.000884615 0.000422996 0.0222811 0.0200154 1108.26 
155 1 0.000918266 0.000664051 -0.0288434 -0.0346225 1119.08 
156 1 0.00102868 0.000769971 -0.0236758 -0.0541069 1067.72 
157 1 0.000688252 0.000717722 0.0155647 0.0822404 1105.58 
158 1 0.000786039 0.000318062 0.00651603 0.084104 1162.18 
159 1 0.00128425 0.000421654 -0.0262408 -0.0136138 1174.67 
160 1 0.000928359 0.000227715 0.0707041 -0.0292273 1081.24 
161 1 0.000188326 0.000490112 -0.0394571 0.0178958 1111.56 
162 1 0.000344657 0.000699616 -0.0586955 -0.00392113 1049.53 
163 1 0.000479704 0.000509821 0.0450301 0.0427615 1114.3 
164 1 0.000252079 0.000443402 0.0386117 -0.0157832 1144.02 
165 1 0.000397029 0.000303735 -0.0691173 0.0304513 1095.97 
166 1 0.000382975 0.000641786 0.0538062 0.0158793 1134.28 
167 1 0.000749978 0.000529324 -0.0623493 0.00785122 844.392 
168 1 0.000367864 0.000726321 0.000960935 -0.0393983 955.983 
169 1 0.000365122 0.000540397 -0.05508 0.0315522 987.108 
170 1 0.000394187 0.000723935 -0.038732 0.069954 993.544 
171 1 0.000115146 0.000487848 0.00827564 -0.00234343 1012.22 
172 1 0.000532854 0.000562907 0.0197879 0.0764729 986.836 
173 1 0.00074309 0.000504503 0.0295198 0.0185121 888.904 
174 1 0.000763917 0.000686843 0.0441514 0.0139379 1075.94 
175 1 0.00055703 0.000443424 -0.061737 0.00366378 1021.67 
176 1 0.000635087 0.000567454 0.0528647 -0.00138458 1168.81 
177 1 0.000882191 0.000542704 0.0160148 0.034265 1017.84 
178 1 0.000834913 0.00025376 -0.0123091 0.0521161 1080.13 
179 1 0.000828868 0.000354522 -0.0550217 -0.0264714 994.989 
180 1 0.00064423 0.000537964 0.0121303 -0.00344333 1052.65 
181 1 0.000948198 0.000326545 0.0183385 -0.00895163 1136.66 
182 1 0.000810961 0.000432645 0.0536535 -0.0810996 1035.8 
183 1 0.000963521 0.000749741 -0.0299205 -0.00589635 888.832 
184 1 0.00107994 0.000601097 0.0971127 0.0638225 1077.33 
185 1 0.00091224 0.000521608 -0.0227752 0.00119135 993.947 
186 1 0.000896537 0.000591477 0.0260774 -0.0115891 1113.34 
187 1 0.000935497 0.00037082 0.0416504 -0.0190514 988.425 
188 1 0.00102846 0.000789457 -0.0637546 -0.0169223 1090.02 
189 1 0.0011996 0.000458408 0.00978722 -0.0249785 1143.9 
190 1 0.00085485 0.000389226 0.0994268 -0.0355643 952.387 
191 1 0.0010761 0.000527677 -0.0398303 0.0663633 1147.36 
192 1 0.000864964 0.00049661 -0.0218076 0.0238696 959.712 
193 1 -3.31066e-05 0.000813601 -0.0402039 0.0137108 1063.73 
194 1 3.4554e-05 0.00056054 0.0333425 -0.0223423 992.441 
195 1 0.000384229 0.000532976 -0.0506997 -0.0521027 1124.25 
196 1 0.000212844 0.000432832 0.00902647 0.0103942 1027.95 
197 1 0.000421389 0.00106536 -0.0794108 0.0131247 1003.32 
198 1 0.000229494 0.000889106 -0.0668161 0.0161198 902.856 
199 1 0.000241465 0.000708175 -0.0867987 -0.042198 1027.36 
200 1 0.000355593 0.000219869 0.0127007 -0.0311258 987.127 
201 1 0.000447383 0.000516464 -9.39146e-05 -0.00791151 1181.09 
202 1 0.000787164 0.000342879 -0.0322018 0.0241288 1081.09 
203 1 0.000486654 0.000584814 -0.0431461 0.0509636 1011.26 
204 1 0.000754976 0.000627332 0.025727 -0.0113667 972.654 
205 1 0.000727861 0.000576104 -0.00758822 0.0841371 1062.74 
206 1 0.000638667 0.000708898 -0.0563144 0.00825542 1030.76 
207 1 0.000576769 0.000672088 -0.0100138 0.0395713 949.492 
208 1 0.000596399 0.000724125 0.041728 0.0184281 1065.16 
209 1 0.00047014 0.000465415 -0.0276218 -0.0247047 1083.23 
210 1 0.00068048 0.000457402 0.0259043 0.0278513 1047.49 
211 1 0.0010538 0.000363645 0.0221355 -0.014726 968.5 
212 1 0.00074551 0.000747233 -0.0812464 0.0359588 1093.96 
213 1 0.0011505 0.000415362 0.0110317 -0.0534047 1109.53 
214 1 0.00104957 0.000419601 0.00691717 -0.041811 1104.84 
215 1 0.00105415 0.000462293 0.0604675 -0.00421257 1061.1 
216 1 0.00096309 0.000594116 -0.0540533 0.0165603 923.063 
217 1 0.000561625 0.000394532 0.0392024 -0.071533 984.881 
218 1 0.00106237 0.000171189 -0.0343685 0.0134641 1127.49 
219 1 0.0010162 0.000775054 -0.0229552 0.0368934 1079.45 
220 1 0.00099287 0.000286012 0.0301021 0.0663462 890.324 
221 1 0.00105829 0.000816671 -0.00023084 -0.0269589 1068.93 
222 1 0.00115738 0.000667628 -0.0375565 -0.0288522 1020.9 
223 1 0.000770138 0.000880627 -0.000363992 0.0156753 1152.69 
224 1 0.0011343 0.000871178 -0.0556637 -0.0561949 1063.4 
225 1 0.000193192 0.000467391 -0.00931553 0.00721965 989.491 
226 1 0.000467916 0.000428469 0.0249769 -0.0172195 1186.59 
227 1 8.99735e-05 0.000637179 -0.0241126 0.0458826 1061.73 
228 1 0.000225069 0.000612181 -0.0943489 -0.0208182 982.662 
229 1 0.000369783 0.000537877 -0.034483 -0.0126191 1041.26 
230 1 0.000220514 0.000435064 0.0297942 -0.0917239 1092.56 
231 1 0.000411737 0.000616753 -0.0173786 -0.00783406 1164.71 
232 1 0.000565654 0.000538541 -0.0435248 -0.0546362 914.414 
233 1 0.000486483 0.000696052 0.0435323 -0.0143071 1208.21 
234 1 0.000561118 0.000709486 0.0379477 -0.000856067 1002.73 
235 1 0.000468711 0.000851999 0.0165467 0.0719296 967.13 
236 1 0.000346376 0.000793462 -0.0239762 -0.0578288 1059.21 
237 1 0.00034558 0.000594206 -0.0916944 0.0528902 1018.47 
238 1 0.000645138 0.000621411 0.0636051 0.0335797 911.5 
239 1 0.00084927 0.00047448 -0.0105921 -0.0499593 905.675 
240 1 0.000402843 0.000375765 0.0048394 0.0386184 1000.24 
241 1 0.000788166 0.000630212 0.0342637 -0.0474868 937.426 
242 1 0.000652929 0.000879483 0.011181 -0.0265491 954.799 
243 1 0.000851569 0.000721265 0.0478573 -0.0250394 967.19 
244 1 0.000491326 0.000693035 -0.0417361 0.0583903 1235.17 
245 1 0.000569566 0.000501281 0.00438639 -0.0792408 1073.31 
246 1 0.000912048 0.000460467 0.00496326 -0.0024846 1040.92 
247 1 0.00049362 0.0005437 -0.0534551 0.0495858 1094.96 
248 1 0.000825964 0.000363722 -0.0616481 0.0181805 996.601 
249 1 0.00103826 0.000406367 -0.0151338 -0.00607849 1023.92 
250 1 0.000917957 0.00045748 0.0166712 -0.0140831 1078.01 
251 1 0.00101439 0.000702824 0.0187538 -0.0325554 1150.01 
252 1 0.000758608 0.000565957 0.0127661 0.0498545 1098.14 
253 1 0.000959927 0.000320352 -0.0120195 0.0392899 1131.59 
254 1 0.000920787 0.000308232 0.0909934 -0.0108553 1100.34 
255 1 0.000619977 0.000786452 0.00869254 0.0174534 886.45 
256 1 0.000836368 0.000542558 -0.0757164 -0.0188544 916.706 
257 1 0.000444228 0.000828817 0.0863285 -0.0188083 1079.5 
258 1 0.000231671 0.000503972 -0.0474212 0.017146 984.069 
259 1 0.000236461 0.000542635 0.00669877 -0.0515478 936.441 
260 1 0.000320033 0.000928165 -0.0317851 -0.0213245 1114.49 
261 1 0.000319215 0.000434354 -0.101161 -0.0027393 961.702 
262 1 0.000595881 0.000497647 -0.015396 -0.0406907 1169.02 
263 1 0.000509842 0.000625446 0.044351 0.0310839 1036.95 
264 1 0.000218307 0.000832441 0.0341599 -0.0444523 1172.6 
265 1 0.000165503 0.000438591 0.0407136 -0.0133066 1038.72 
266 1 0.000597819 0.000534675 0.00384488 0.00557564 905.03 
267 1 0.000787624 0.000656231 -0.0459385 0.014051 1018.91 
268 1 0.000590391 0.000869745 0.0697548 -0.00500404 1023.46 
269 1 0.00037537 0.000645839 0.058795 -0.0297512 1098.91 
270 1 0.000833019 0.000853467 -0.144901 0.00552045 1133.58 
271 1 0.000518576 0.000409453 -0.00683536 0.0399508 1081.51 
272 1 0.000918865 0.000388025 -0.148023 -0.018473 1004.8 
273 1 0.000512045 0.000810346 0.0603229 0.0101199 964.982 
274 1 0.000861759 0.000521203 -0.047739 -0.0463054 913.567 
275 1 0.000845359 0.000617251 0.0163626 0.0108509 1153.83 
276 1 0.000809407 0.000497597 -0.0159488 0.00842388 1114.88 
277 1 0.00101554 0.000762013 -0.0272234 0.0589329 995.214 
278 1 0.000540101 0.000745457 -0.0236484 -0.0845471 1004.63 
279 1 0.000718129 0.000290407 0.0127673 -0.0483704 869.094 
280 1 0.00037109 0.000413724 -0.0754904 0.0494228 1087.6 
281 1 0.000548914 0.000567095 -0.0591626 0.015316 1011.16 
282 1 0.000773091 0.000627113 -0.0290059 0.0378489 999.165 
283 1 0.000884144 0.000662693 -0.00295635 -0.00644748 1055.82 
284 1 0.00106241 0.000517056 0.0367159 -0.0023359 1064.01 
285 1 0.000844778 0.000492553 0.0285004 -0.027686 1047.47 
286 1 0.00114933 0.00100648 -0.0190803 -0.0410968 904.9 
287 1 0.00101231 0.000625994 0.00546074 0.0324209 1004.22 
288 1 0.00103491 0.000656543 -0.00923405 0.0315865 1013.66 
289 1 0.000747379 0.000338418 -0.0383368 0.0358517 1091.7 
290 1 0.000304308 0.00047858 0.0111418 0.0444184 1106.25 
291 1 0.000376487 0.000498493 0.0481044 -0.0127653 971.386 
292 1 0.000215849 0.000564879 -0.0133745 0.000464176 1020.06 
293 1 0.000247408 0.000640235 0.0540017 0.0196972 964.992 
294 1 0.000319028 0.000574632 0.0112658 -0.0483576 972.354 
295 1 0.000420069 0.000664324 -0.0443852 -0.0179976 997.591 
296 1 0.000519946 0.000891656 0.017176 0.0278781 965.51 
297 1 0.000467012 0.000831834 0.0527336 0.032867 1103.67 
298 1 0.000492717 0.000788693 0.012862 -0.0135983 1086.12 
299 1 0.000493938 0.000683104 -0.00569198 -0.0172862 1190.09 
300 1 0.0004511 0.000750459 0.0807425 -0.0465035 919.265 
301 1 0.000441115 0.00043115 -0.0366815 -0.0200391 1052.9 
302 1 0.00082806 0.000639995 -0.0492386 0.0373498 1020.16 
303 1 0.000263994 0.000596985 -0.00497367 -0.0102734 1035.27 
304 1 0.000612129 0.000575919 0.0228589 -0.0631628 962.694 
305 1 0.000622713 0.000351469 -0.000527019 -0.0152062 1042.88 
306 1 0.00081053 0.000683684 0.00744999 0.00647594 1059.44 
307 1 0.000725436 0.000452443 -0.049022 -0.0579753 1007.55 
308 1 0.000581092 0.000370446 0.0219441 -0.0652256 953.987 
309 1 0.000526448 0.000867544 -0.0169975 0.0362367 1070.67 
310 1 0.000673159 0.000296633 -0.025603 -0.0287366 1014.25 
311 1 0.000761201 0.000556749 0.0400238 -0.0999531 1104.39 
312 1 0.000792207 0.000692195 0.00664483 0.00976067 1037.27 
313 1 0.000893999 0.000561769 0.0228937 0.0791416 1148 
314 1 0.000775388 0.000793137 0.0101963 0.024076 1074.58 
315 1 0.000991281 0.000541885 -0.0534773 -0.00894002 1084.43 
316 1 0.00106488 0.000675596 0.0536298 0.0320569 1031.03 
317 1 0.000846078 0.000669054 -0.0253782 -0.00596604 1081.51 
318 1 0.000959144 0.000648075 -0.0375437 0.0363929 1102.8 
319 1 0.0010636 0.000736979 -0.00887033 -0.010883 822.756 
320 1 0.00114845 0.000765768 0.0011013 -0.0367778 997.798 
321 1 0.000395286 0.000934472 0.0693212 0.0444162 1154.92 
322 1 0.000403336 0.000667666 0.00138811 0.0473276 1014.58 
323 1 0.00011651 0.00059027 0.0687466 -0.000864574 1068.65 
324 1 0.000297187 0.000793383 0.0150268 0.0101697 1070.77 
325 1 0.000540535 0.000772644 -0.0217618 0.00804049 1005.82 
326 1 0.00056354 0.000606471 -0.0314844 -0.0142665 1013.07 
327 1 0.000524241 0.000479212 -0.0123004 0.00300138 995.699 
328 1 0.000307989 0.000592312 0.101248 0.00628909 1160.8 
329 1 0.000489091 0.000751104 0.0146596 0.00137933 1028.77 
330 1 0.000635155 0.000465469 -0.00778556 -0.0743802 939.052 
331 1 0.000658383 0.00047524 -0.0245399 0.0948265 908.569 
332 1 0.000702789 0.000605548 -0.043668 -0.0357402 1095.77 
333 1 0.00054392 0.000797443 -0.00565744 0.00389789 962.293 
334 1 0.000501697 0.000498609 0.0527811 0.00140628 1094.9 
335 1 0.000757488 0.000760857 0.0722436 -0.0372114 1084.43 
336 1 0.000450801 0.000486138 0.00292353 0.0110355 991.633 
337 1 0.000358617 0.000467119 -0.0791325 0.0624234 1020.6 
338 1 0.000451995 0.000785675 0.0102219 -0.0610513 913.358 
339 1 0.0007299 0.000652386 -0.0761183 0.0221159 1010.71 
340 1 0.00100178 0.000590157 -0.0366872 0.0365996 944.821 
341 1 0.00066707 0.000631365 0.0160064 -0.00179219 1010.38 
342 1 0.000700894 0.000827754 -0.0272089 -0.0251825 973.63 
343 1 0.000589246 0.000758683 0.0693062 -0.0195885 1033.28 
344 1 0.00110864 0.000772449 0.0450423 0.0522316 1148.69 
345 1 0.000757066 0.000693591 -0.045023 -0.0471119 1085.67 
346 1 0.000715668 0.00073675 -0.0510605 0.0643864 1032.31 
347 1 0.000928272 0.000394158 0.0217605 -0.0205796 1035.72 
348 1 0.000711635 0.00085947 0.062033 -0.0262338 956.049 
349 1 0.000925522 0.000940362 0.0611852 0.0352237 993.52 
350 1 0.000770933 0.000561782 0.0673019 0.0441145 1078.52 
351 1 0.00102572 0.000730135 -0.00398 0.0103664 1039.35 
352 1 0.00118685 0.000640431 0.0239328 -0.00889717 1146.34 
353 1 6.76023e-05 0.000603366 -0.0788217 -0.0474038 1098.68 
354 1 0.000300322 0.000555781 -0.0499739 -0.038148 1010.63 
355 1 0.000287986 0.00100474 -0.0565767 -0.0331798 988.267 
356 1 0.000336414 0.000628723 0.0346453 -0.0891518 1049.75 
357 1 0.000219907 0.000489565 -0.00532338 -0.0901274 1013.41 
358 1 0.000445042 0.000396696 0.0071948 0.0132053 1000.98 
359 1 0.00057775 0.000624989 -0.147948 -0.0458152 1097.32 
360 1 0.000828899 0.000856885 0.00975473 -0.0345691 1106.75 
361 1 0.000571641 0.000579773 -0.0866546 -0.0548923 966.573 
362 1 0.000453447 0.000703765 -0.0172249 -0.0593088 947.235 
363 1 0.000456791 0.000670734 -0.022139 0.0258739 950.811 
364 1 0.000530383 0.000416415 -0.013373 0.0555767 1038.45 
365 1 0.000646379 0.000592903 0.00720106 -0.0372589 952.001 
366 1 0.000433734 0.000352789 0.0315784 -0.0148873 967.007 
367 1 0.000713642 0.000641106 -0.100581 -0.0484834 1125.31 
368 1 0.000802444 0.000473276 0.0591073 0.0201279 1093.7 
369 1 0.000711844 0.000693729 0.00818309 0.0103007 1010.04 
370 1 0.000614904 0.000773714 -0.0236288 -0.0540815 947.937 
371 1 0.000671033 0.000392331 -0.0804038 -0.0115712 1103.22 
372 1 0.000655759 0.000765225 0.0488039 -0.0614184 929.646 
373 1 0.00085817 0.000635381 0.0190821 -0.00951984 1091.59 
374 1 0.000918508 0.000597112 -0.0374239 -0.000840888 1058.1 
375 1 0.00060754 0.000944575 -0.0110451 -0.0901247 1064.64 
376 1 0.000988733 0.000703162 0.106032 0.00422108 1117.94 
377 1 0.000881625 0.000428391 0.0536773 0.00358508 1112.09 
378 1 0.000699204 0.000734516 0.00982852 0.0457779 1062.19 
379 1 0.00103863 0.000740339 0.055345 0.00424858 1031.35 
380 1 0.000865346 0.000731852 0.0771075 -0.0509056 928.296 
381 1 0.000839387 0.000514001 -0.0392209 0.0558012 975.205 
382 1 0.00102479 0.000640116 0.0509833 0.0154584 1018.39 
383 1 0.000822972 0.000685059 0.0551955 0.0871901 1077.56 
384 1 0.000986876 0.000646056 -0.0545087 -0.0839327 1028.74 
385 1 0.000278954 0.000666078 0.0172015 0.0137643 986.31 
386 1 1.25799e-05 0.000571154 -0.0521187 0.0602175 864.216 
387 1 0.000325199 0.000929541 0.0191049 0.0490108 1103.01 
388 1 0.000255178 0.000574273 -0.0271497 0.019769 1008 
389 1 0.000391679 0.000575878 -0.00672211 -0.00324091 1038.75 
390 1 0.000315022 0.000537583 -0.00735917 -0.00771932 926.148 
391 1 0.000336712 0.000875541 0.0199381 -0.00238986 1079.86 
392 1 0.000610993 0.00103135 -0.0850061 0.0342416 1119.53 
393 1 0.000407894 0.000799188 -0.0407456 0.0577151 1010.2 
394 1 0.000587045 0.000888312 -0.0697428 -0.0111754 1026.71 
395 1 0.000464375 0.00067211 -0.0908658 0.0324596 967.636 
396 1 0.00039276 0.000773633 0.0409472 -0.0233673 981.168 
397 1 0.000400112 0.000515168 -0.0382783 0.0580162 1128.3 
398 1 0.000536927 0.000462582 0.00317073 0.0103363 883.734 
399 1 0.000612557 0.000922811 0.0296735 0.0668401 912.937 
400 1 0.000390781 0.000757621 0.0190003 -0.00418729 982.169 
401 1 0.000783179 0.000490349 0.0119305 -0.0348185 1234.2 
402 1 0.000417197 0.000710736 -0.0341648 -0.0381163 1058.16 
403 1 0.000546134 0.000709487 -0.0272195 -0.0348233 1088.26 
404 1 0.000616363 0.000606801 -0.0781958 -0.00976945 963.7 
405 1 0.000722729 0.000693216 -0.0535771 0.0287545 1007.48 
406 1 0.000526859 0.000612324 -0.00359018 -0.0178382 909.323 
407 1 0.000411885 0.000813379 0.0310455 0.0192374 984.412 
408 1 0.000855712 0.000427774 0.0206463 0.0262836 1058.37 
409 1 0.00089002 0.000556514 0.000688637 0.0774709 1136.94 
410 1 0.000937947 0.00063222 -0.00149578 0.0335797 1120.54 
411 1 0.00116547 0.000795498 0.0209166 0.0561236 1038.58 
412 1 0.00125843 0.000944373 -0.0227455 0.0475232 1076.81 
413 1 0.000881856 0.000662572 -0.0204844 0.110653 1053.77 
414 1 0.00113002 0.000637657 0.046662 0.0827429 1047.88 
415 1 0.00121521 0.000503988 0.0503368 -0.0952291 1069.08 
416 1 0.00100268 0.000562244 -0.038955 -0.00388869 1042.99 
417 1 0.000176789 0.000621767 -0.0303841 -0.0669946 1030.51 
418 1 -4.96755e-05 0.000801539 0.0251695 -0.0359639 963.752 
419 1 0.00021851 0.000578838 0.0673023 0.0213854 1011.06 
420 1 0.000412761 0.000560255 -0.0426918 -0.0261743 915.151 
421 1 0.000429877 0.000641779 0.0503807 0.105085 894.692 
422 1 0.000400193 0.000442151 0.0259259 -0.0503063 1187.89 
423 1 0.00025601 0.00074532 0.0285621 0.0387699 924.849 
424 1 0.000584799 0.000735895 0.0520456 -0.015531 1059.48 
425 1 0.00044568 0.000951546 -0.0928582 -0.00809013 963.063 
426 1 0.000665108 0.000653839 -0.0370728 -0.0371954 1013.31 
427 1 0.00036598 0.000847509 -0.0506972 0.0589271 1121.31 
428 1 0.000652185 0.000711966 0.00442244 -0.0267586 1040.67 
429 1 0.00054294 0.000657298 0.0215371 0.0051905 1024.47 
430 1 0.000961201 0.000882907 0.00460837 0.0129958 1099.19 
431 1 0.000577546 0.000822011 -0.0386873 0.0354361 1127.54 
432 1 0.000837187 0.00080938 0.107534 -0.0664589 1094.79 
433 1 0.000910485 0.000414501 -0.1432 -0.0625176 1028.11 
434 1 0.000656823 0.000778922 0.0503693 -0.0337956 920.113 
435 1 0.000325654 0.000753628 -0.048652 0.00157302 1138.17 
436 1 0.000521107 0.000695638 -0.00634664 0.0709935 1206.2 
437 1 0.000869569 0.000712924 0.0637282 0.021555 1019.89 
438 1 0.000795812 0.000817623 -0.0591753 0.0299664 1010.85 
439 1 0.000754364 0.000657293 0.0307639 -0.0278077 967.693 
440 1 0.00105885 0.000791356 0.0436348 -0.0372657 933.061 
441 1 0.000643977 0.00104044 0.00290352 -0.0696284 1143.35 
442 1 0.000823985 0.000592224 -0.0217164 0.0407503 931.877 
443 1 0.000862703 0.000680739 0.0241771 -0.0634085 1119.66 
444 1 0.00109353 0.000683151 0.0322488 0.0681207 983.894 
445 1 0.000726996 0.000703912 -0.0628654 0.0220263 1036.91 
446 1 0.00117204 0.000880307 0.107112 -0.00189102 1146 
447 1 0.00110433 0.000733909 0.0395864 0.000901257 1056.29 
448 1 0.00123642 0.000464258 0.00173583 0.0814848 1046 
449 1 0.000639708 0.000383516 0.00996816 0.0232439 1129.6 
450 1 0.000352331 0.000729272 0.0770928 -0.00793672 1052.23 
451 1 0.000314116 0.000692153 0.0948655 0.0563909 1063.79 
452 1 0.000257513 0.000823173 -0.00135501 0.0305742 1111.24 
453 1 0.000470143 0.000907947 0.0400737 -0.022694 1005.18 
454 1 0.000345642 0.000951319 -0.00190688 -0.0162404 1118.2 
455 1 0.000539506 0.00051297 0.0329907 0.0318166 891.704 
456 1 0.000352684 0.000809305 -0.00300115 -0.0932539 1051.74 
457 1 0.00050093 0.000734922 0.0352127 -0.0228109 966.138 
458 1 0.000410514 0.000438872 0.0459217 0.0340678 1141.66 
459 1 0.000354686 0.000622082 -0.0220444 0.00464833 992.791 
460 1 0.000723966 0.00103615 -0.0360864 0.0184053 1115.52 
461 1 0.000376659 0.000579695 0.0263546 0.0335122 1063.9 
462 1 0.000341738 0.000881576 -0.00676415 0.01494 1092.3 
463 1 0.000919503 0.00113817 -0.0659772 0.0143735 917.839 
464 1 0.000651089 0.00106959 0.00579936 -0.00650752 1055.75 
465 1 0.000728667 0.000930357 0.0111349 -0.0117872 1056.76 
466 1 0.000581701 0.000789021 0.0167936 0.0157953 1080.67 
467 1 0.00083371 0.00103151 -0.0170267 0.00293201 1046.15 
468 1 0.00101314 0.000712125 0.0488018 -0.0265409 1117.59 
469 1 0.000864394 0.000870548 -0.0154029 -0.0250276 1076.98 
470 1 0.000697659 0.000583177 -0.0137689 0.0488236 1160.15 
471 1 0.000787529 0.00073293 -0.0506807 -0.0335186 859.144 
472 1 0.000540346 0.000850947 0.0296126 0.00986268 1025.48 
473 1 0.000888292 0.000790417 -0.00984493 -0.056858 1095.81 
474 1 0.000622375 0.000729028 0.0052218 -0.0392445 1183.74 
475 1 0.00103885 0.000939234 0.0065947 -0.0279294 1037.29 
476 1 0.000976842 0.000615215 -0.0219398 -0.047107 981.805 
477 1 0.00111884 0.000955152 0.164304 -0.00331658 1111.18 
478 1 0.00102081 0.000828785 -0.0225474 -0.0191567 1177.96 
479 1 0.00112109 0.000704058 0.0032125 -0.0106128 1102.8 
480 1 0.0010353 0.000865272 0.123781 0.00643662 1024.4 
481 1 0.000156645 0.00069845 0.0868723 0.066384 1133.84 
482 1 0.000291999 0.000895162 -0.00397251 0.00044611 1099.81 
483 1 0.000382605 0.000562909 0.0125458 -0.0242995 1078.45 
484 1 0.000419536 0.000752695 0.031166 0.0145283 1023.96 
485 1 0.000463552 0.00095356 0.0369044 0.100329 1139.25 
486 1 0.000546813 0.000948429 0.0185804 0.0360333 1087.83 
487 1 0.000364865 0.000743641 -0.0111399 0.0933931 979.718 
488 1 0.000513877 0.000659257 -0.0373824 0.0260903 974.143 
489 1 0.000395671 0.00091477 -0.00906823 -0.0275633 1151.3 
490 1 0.000283102 0.000833285 0.0128393 0.0693339 1057.26 
491 1 0.000325865 0.000729353 -0.026513 0.00716971 1208.88 
492 1 0.000567147 0.000568888 -0.0525454 -0.0500667 969.584 
493 1 0.000735799 0.00103714 0.0239504 0.033898 1073.54 
494 1 0.000616851 0.000716923 -0.0145295 0.0311919 1112.27 
495 1 0.000500494 0.000918254 0.032145 0.0604978 924.757 
496 1 0.00107432 0.000953882 -0.0518097 0.00173116 1132.28 
497 1 0.00062123 0.000731179 0.0309234 -0.0160662 1184.51 
498 1 0.000849599 0.000709319 -0.0218684 0.0246759 1063.06 
499 1 0.000433068 0.000685992 0.0196177 0.0522616 1068.49 
500 1 0.000482858 0.00081081 -0.00280878 0.0449378 1084.77 
501 1 0.000410078 0.000599276 -0.00224206 0.0804221 1115.72 
502 1 0.000819808 0.000694554 0.05393 -0.0968415 1010.73 