ITEM: TIMESTEP
107000
ITEM: NUMBER OF ATOMS
1024
ITEM: BOX BOUNDS pp pp pp
0 0.0008
0 0.0008
-1e-06 1e-06
ITEM: ATOMS id type xu yu vx vy c_rho_peratom 
1 2 0.000360683 0.000364624 0.0637763 0.0859976 1133.62 
2 2 0.000371548 0.000378003 0.0129426 0.103485 1063.89 
3 2 0.000364927 0.000361925 -0.00959113 0.0619242 1133.34 
4 2 0.000386201 0.000349781 0.105802 -0.0579828 1086.54 
5 2 0.000398504 0.000346758 0.0480454 0.0245865 1069.88 
6 2 0.000422397 0.000342463 -0.00477342 0.0398023 1083.53 
7 2 0.000428757 0.000344698 -0.00686739 0.0189793 1086.88 
8 2 0.000442473 0.00033274 0.119094 0.0641533 1085.07 
9 2 0.000449784 0.000330688 -0.0338445 0.0266632 1084.56 
10 2 0.000456912 0.000334439 -0.0992301 -0.0281798 1112.43 
11 1 0.00122151 0.000667903 -0.0207442 -0.0288339 1044.76 
12 1 0.000765742 0.000344673 0.00372196 0.000835197 1087.92 
13 1 0.000798783 0.000390981 -0.0194438 0.0654629 1116.56 
14 1 0.000891731 0.000164405 -0.0066984 0.0836182 1050.74 
15 1 0.000792841 0.00062058 -0.0148108 -0.0171113 1064.05 
16 1 0.000889067 0.000465921 0.0163813 -0.0061578 934.434 
17 1 0.000834722 0.000316867 0.0372933 -0.0290683 1106.78 
18 1 0.00131073 0.000601227 0.0712999 -0.0505231 988.441 
19 1 0.000666597 0.000634467 -0.0311833 -0.0030293 1039.49 
20 1 0.00103344 0.000696286 0.0362925 0.00626087 1043.32 
21 1 0.00102499 0.000179552 -0.125616 0.0577837 1121.69 
22 1 0.00128282 0.000644824 -0.0486423 -0.0215559 1004.26 
23 1 0.00108643 0.000124593 -0.109456 -0.111311 1056.47 
24 1 0.00130924 0.000262542 0.0792058 0.0685569 1079.93 
25 1 0.0011848 6.34323e-05 -0.0606019 0.021855 1167 
26 1 0.000974609 0.000232883 0.0382776 0.0225674 862.813 
27 1 0.00106765 0.00018179 -0.021047 0.117366 1182.01 
28 1 0.00117259 0.000252222 -0.0040184 -0.00327867 1005.32 
29 1 0.0010267 0.000491551 0.00669469 -0.0203695 1090.16 
30 1 0.00101858 -0.000141196 0.017688 -0.0356874 1140.18 
31 1 0.000477652 0.000266302 -0.0569396 0.0225474 1062.42 
32 1 0.001256 0.000272474 0.00413433 -0.105583 1098.67 
33 1 0.000400182 0.000155474 -0.0255701 -0.00668732 1152.98 
34 1 0.000319959 -2.11333e-05 -0.0311962 -0.0366568 1053.12 
35 1 0.000329442 0.000117949 -0.0246812 -0.0773846 994.205 
36 1 0.000424595 0.000494621 -0.0332563 -0.0290039 982.967 
37 1 0.000374222 0.00060091 -0.0612758 -0.0388604 1019.24 
38 1 0.000400942 0.000596103 -0.0490058 -0.0100461 941.208 
39 1 0.000454126 0.000495184 -0.0594409 0.05965 1031.54 
40 1 0.000625335 0.000238716 -0.000539892 -0.0592899 1068.29 
41 1 0.000567686 0.000256918 0.0479894 0.0163411 1134.29 
42 1 0.000600377 0.000301883 -0.000511388 -0.00776648 1061.52 
43 1 0.000788186 0.000698726 0.0786288 -0.0377842 1002.44 
44 1 0.000768343 0.000191899 -0.0128401 -0.0466098 1122.22 
45 1 0.00100131 0.000411225 0.0287611 -0.0037973 1150.81 
46 1 0.000790739 0.000421734 -0.00301489 -0.0303047 1215.58 
47 1 0.000827008 0.000571889 0.101926 0.0709389 1020.94 
48 1 0.000728333 0.000321281 0.0255902 0.0326828 1047.07 
49 1 0.000998383 0.000316645 -0.00944456 -0.0103584 1038.25 
50 1 0.000827379 0.000385924 0.00841724 0.00605403 1082.92 
51 1 0.000602314 7.75007e-05 -0.0837666 0.0276328 1116.84 
52 1 0.000830447 0.00022483 -0.0504712 -0.055277 1087.4 
53 1 0.0011362 0.000339825 -0.0397458 0.0298871 1070.68 
54 1 0.00119851 0.000252002 -0.0281256 -0.04884 983.98 
55 1 0.0011058 -0.00011958 0.0526086 0.0565645 1059.66 
56 1 0.000763421 0.000524883 -0.0122635 -0.012144 976.577 
57 1 0.00132903 0.000582272 0.0113556 -0.0638427 900.906 
58 1 0.000855853 0.000399898 0.0514268 0.0426716 1088.82 
59 1 0.000961215 0.00028423 -0.0383816 -0.0175414 1095.5 
60 1 0.0015663 0.000195114 -0.030559 -0.0117021 1117.19 
61 1 0.00152573 0.000845853 -0.0690969 -0.0634884 978.711 
62 1 0.000972806 0.000108356 0.0188686 -0.00304444 1079 
63 1 0.00133199 0.000323347 -0.0269808 0.0381752 1085.81 
64 1 0.000917232 5.92248e-05 0.0167644 0.0497247 1002.53 
65 1 0.000331734 0.000736598 0.0626472 0.00155161 1123.36 
66 1 0.000702256 0.000196835 -0.0734962 -0.00788219 975.104 
67 1 0.000542632 0.000511208 0.0409018 0.0560717 958.97 
68 1 0.000449679 0.000527958 -0.0577868 0.0499626 1029.1 
69 1 -0.000136385 0.000471315 0.022001 -0.047968 1127.69 
70 1 0.000931263 0.000451723 -0.00551532 -0.0340901 960.36 
71 1 0.000499995 0.000716302 -0.0783467 0.01149 849.998 
72 1 0.000723694 0.000201777 -0.00089536 -0.00954333 929.045 
73 1 0.000351062 0.000447766 -0.0709205 0.0504193 1093.7 
74 1 0.000584009 0.000573585 0.00884779 -0.000613179 1140.52 
75 1 0.000481368 0.000801986 -0.0212623 0.00454533 1074.79 
76 1 0.000627343 0.000668204 0.0201944 -0.0919505 1067.89 
77 1 0.000841067 0.000384643 0.0845159 0.00579482 1103.03 
78 1 0.000864817 0.000344321 -0.0217847 -0.0258254 977.085 
79 1 0.000350794 0.000263339 -0.0960448 -0.014634 1143.86 
80 1 0.000869378 7.68124e-05 -0.0136911 0.0296687 929.411 
81 1 0.000250701 0.000119176 -0.0132652 0.0547407 1074.93 
82 1 0.000702977 0.000527309 -0.0459064 0.0203642 1015.01 
83 1 0.000774243 0.000735973 -0.0524651 0.0121733 1026.55 
84 1 0.00134268 0.000288576 0.0329846 -0.0187348 1108.86 
85 1 0.00130858 0.000192288 -0.0334962 0.0500571 1069.93 
86 1 0.000733749 0.000709455 0.0171101 -0.0515106 1037.69 
87 1 0.00119622 0.000327529 0.0382445 0.0237715 1106.98 
88 1 0.00131778 9.32703e-05 -0.0285423 -0.00209912 1205.82 
89 1 0.00104759 0.000293487 0.0320498 0.0218011 1165.74 
90 1 0.00109183 0.000202113 -0.0083933 -0.00292212 1027.68 
91 1 0.000837551 0.000118408 0.0429611 -0.0594028 867.047 
92 1 0.000928387 0.000587756 -0.013644 0.0358287 958.868 
93 1 0.000864357 0.000426921 -0.0104363 -0.0254135 1161.42 
94 1 0.00102984 0.000682269 0.0426761 0.0208273 1079.8 
95 1 0.00125428 0.000414266 -0.0896499 -0.0536173 1021.75 
96 1 0.00118377 0.000292222 -0.0207489 0.0261736 1021.79 
97 1 0.000496922 0.000919412 -0.0661978 -0.0422783 1114.39 
98 1 0.000145694 0.000117531 0.0907929 -0.0240861 1002.06 
99 1 0.000339277 0.000362501 0.00121195 0.0251051 1085.15 
100 1 0.000403108 0.000639048 -7.99541e-05 0.0198353 960.46 
101 1 0.000526441 0.000444148 0.0446936 0.0310168 1079.45 
102 1 0.000579239 0.000429949 -0.0419237 -0.0175094 1114.21 
103 1 0.00095744 0.000876529 -0.0116707 0.0431869 964.529 
104 1 0.00105537 0.000357042 0.0920781 0.0271426 792.246 
105 1 0.0001934 0.00058887 -0.122458 -0.00424426 1080.39 
106 1 0.000497701 8.67875e-05 0.076937 -0.0587316 1231.49 
107 1 0.000673119 0.000469104 -0.0290881 0.0357616 1043.29 
108 1 0.000714993 0.000427192 -0.0150429 0.0907851 1132.59 
109 1 0.000425192 0.000749808 -0.0118802 -0.0296673 1081.88 
110 1 0.000762858 0.000376841 -0.177917 0.0151316 995.574 
111 1 0.000641463 0.000326338 -0.0222309 -0.0276362 1118.27 
112 1 0.00064255 0.000493567 -0.05167 -0.00807221 1048.81 
113 1 0.000622848 0.000500213 -0.0551896 -0.0470803 889.836 
114 1 0.000853336 0.000614637 0.00304631 -0.0360692 950.521 
115 1 0.000909239 0.000747727 -0.0889926 0.0582984 1016.55 
116 1 0.000972002 0.000304942 -0.00818501 0.0398892 969.333 
117 1 0.00146776 0.000106916 -0.029767 0.0423118 1092.44 
118 1 0.00121698 0.000291034 0.0203937 -0.0744459 990.764 
119 1 0.0012316 0.00039308 -0.0217525 0.00707216 1099.67 
120 1 0.00154773 0.000871391 -0.0153804 -0.0392061 1156.2 
121 1 0.00122633 0.000204761 0.0386551 0.0422366 1018.91 
122 1 0.0011361 0.000557375 0.0336988 -0.0600392 986.693 
123 1 0.00119862 0.000713364 0.0608548 -0.0733946 1052.32 
124 1 0.00067526 0.00036479 0.0177387 -0.0235497 1133.45 
125 1 0.000796042 0.000328151 0.0375277 0.0306439 887.151 
126 1 0.00128436 0.000663951 0.0671262 0.0576001 1116.18 
127 1 0.000835514 0.000138263 0.0218669 -0.0459847 914.08 
128 1 0.000918525 0.000603833 -0.0154458 0.0757325 1086.18 
129 1 0.000153176 -0.00018916 -0.0598808 0.0673201 1146.09 
130 1 8.29114e-05 0.000219192 -0.0799695 0.0656068 923.62 
131 1 0.000581874 0.000404928 0.0996077 -0.0286716 1067.51 
132 1 0.000760518 0.000401091 -0.0102743 0.0685258 1123.03 
133 1 0.000641027 0.000132152 0.0464314 0.0289904 1084.39 
134 1 0.000368861 0.000541404 0.0258004 -0.028537 1020.14 
135 1 0.000342035 0.000391667 -0.04764 -0.117795 1092.78 
136 1 0.000333082 0.00062348 0.0117327 -0.0783781 978.626 
137 1 0.000587465 0.000291044 -0.0375029 0.0264015 1117.45 
138 1 0.000338803 0.000717763 -0.0525463 0.02178 994.125 
139 1 0.000930013 0.000694574 0.0624452 -0.0192904 1092.32 
140 1 0.000809569 0.000701447 0.00285897 -0.0220662 981.446 
141 1 0.000626709 0.000429429 -0.0617676 0.0124195 1027.03 
142 1 0.000641132 0.000406383 0.0158572 0.0259671 1020.94 
143 1 0.000693415 0.000689718 0.0698048 -0.0550314 983.918 
144 1 0.000696689 0.000379737 0.0166475 -0.014871 959.19 
145 1 0.000578458 0.000492616 0.0432291 -0.0550474 1086.75 
146 1 0.000938032 0.000752445 -0.0412954 0.0579178 1026.08 
147 1 0.000954123 0.000483783 0.00439175 -0.0269884 1096.06 
148 1 0.000924759 0.000379808 -0.01013 0.0826413 1043.64 
149 1 0.000948449 0.000720157 -0.0107136 -0.00516676 1015.96 
150 1 0.000994701 -5.58035e-05 0.0775067 -0.00263461 1130.68 
151 1 0.00134016 0.0010214 -0.0391834 0.0472962 1096.78 
152 1 0.000758602 9.59468e-05 -0.0290271 -0.0157581 944.191 
153 1 0.00112994 0.000572117 -0.0311585 0.0440005 1038.23 
154 1 0.000985663 0.000268541 0.0328444 0.0277888 1011.8 
155 1 0.000872911 0.000544608 0.0566506 0.0319749 1132.34 
156 1 0.00117596 0.000625285 0.019613 -0.0493585 1087.32 
157 1 0.000932744 0.000622693 -0.0582789 0.000184164 1205.52 
158 1 0.000937016 0.000264137 0.0174094 0.0108653 1135.3 
159 1 0.00152293 0.000509707 0.003601 -0.0109473 1042.73 
160 1 0.000854418 0.000214025 -0.0359766 -0.0482869 975.943 
161 1 0.000189918 0.000295015 0.0574991 0.0869357 1026.34 
162 1 0.000552776 0.000786562 0.00355605 -0.0413017 1023.63 
163 1 0.000291945 0.000892438 -0.0388266 0.0379931 1083.38 
164 1 0.000394436 0.000299766 -0.0105453 0.0906459 1049.75 
165 1 0.000712836 0.000140687 -0.0147433 0.045481 1078.92 
166 1 0.000207605 0.000700798 0.0275383 0.00279486 1147.4 
167 1 0.000653483 0.000451608 0.0180947 0.0301938 1056.76 
168 1 0.000649855 0.000372845 0.0298223 0.00825458 1194.78 
169 1 0.000595665 0.000697171 -0.015912 0.0279373 1098.54 
170 1 0.000519006 0.000698617 0.00675032 -0.0139782 1054.19 
171 1 0.000209021 0.000572524 0.021679 0.00693924 1126.03 
172 1 0.000493382 0.000449366 0.0177902 -0.0382928 958.397 
173 1 0.000660715 0.000303248 -0.0534975 0.0269515 1111.53 
174 1 0.000949155 0.000638273 0.0363062 0.066217 1057.31 
175 1 0.000693192 0.000284076 0.0279635 -0.0861582 938.755 
176 1 0.000491675 0.000768194 -0.0149317 0.0685771 953.782 
177 1 0.000986974 0.000450702 0.0292099 -0.00855008 1102.8 
178 1 0.00133823 0.000282745 -0.0230566 0.0474437 1115.28 
179 1 0.00108025 0.000567557 0.0254872 0.029189 1102.03 
180 1 0.000754518 0.000861107 0.0118019 -0.00379579 1092.83 
181 1 0.00091524 0.000175581 0.0206051 -0.0436552 1176.84 
182 1 0.000924206 0.000355678 0.029388 0.0400618 971.549 
183 1 0.000978985 0.000672485 -0.00781439 0.0430479 1042.35 
184 1 0.000919002 0.000405365 0.0152459 0.0402477 1118.48 
185 1 0.000830806 0.000437169 0.0200224 0.075662 985.558 
186 1 0.00117078 0.000479745 0.0235074 -0.00738014 1197.84 
187 1 0.000708416 0.00048154 0.0192651 -0.00702583 935.078 
188 1 0.00119842 0.00085934 -0.126797 -0.0645607 1203.05 
189 1 0.00121896 0.000552025 -0.00785255 -0.00536968 1037.69 
190 1 0.000797802 0.000268303 -0.0505038 -0.0815852 972.031 
191 1 0.00111855 0.00029849 0.0885533 -0.0308426 1107.84 
192 1 0.000735372 0.000660593 0.0344728 0.0321577 936.987 
193 1 -7.44894e-06 0.000822324 0.0358399 -0.0421334 998.8 
194 1 -0.00015319 0.000511376 -0.0450022 -0.0636458 1035.67 
195 1 0.000727535 0.00023684 -0.0113137 0.144233 981.732 
196 1 0.000314308 0.000429622 0.0753935 0.0545659 855.613 
197 1 0.000154165 0.000828423 -0.0205277 -0.0336463 1080.87 
198 1 0.000343324 0.00084905 0.018141 -0.00524046 1102.77 
199 1 0.00016898 0.000684798 0.0433855 0.0297852 1072.12 
200 1 0.000252572 0.000131314 -0.056758 0.0346211 1081.79 
201 1 0.000401012 0.0003911 -0.0535329 0.0499994 990.263 
202 1 0.000720312 0.000318787 0.08212 -0.0548838 980.587 
203 1 0.000416559 0.000957585 -0.0164273 -0.0268525 1099.3 
204 1 0.000882282 0.00065031 -0.0324016 -0.00183034 1009.5 
205 1 0.000851108 0.000541506 0.0990609 0.0523918 1130.73 
206 1 0.000696658 0.000711188 -0.0807743 0.0508203 1129.04 
207 1 0.000942662 0.000557353 0.0635226 0.0720682 854.432 
208 1 0.000908676 0.000847671 0.0588416 -0.105197 1023.19 
209 1 0.000588313 0.000155394 0.0383361 -0.082854 1034.29 
210 1 0.000794069 0.000397225 0.00258635 -0.0458534 1201.31 
211 1 0.00104698 0.000311259 0.0161314 0.0626541 1187.98 
212 1 0.000858784 0.00104437 -0.115802 0.0222583 971.643 
213 1 0.00103879 0.000211128 -0.0351583 0.0433804 1045.17 
214 1 0.000913114 0.00023135 0.0255569 0.0218341 1031.08 
215 1 0.00130074 0.000497783 -0.0264549 -0.0219146 1007.45 
216 1 0.0011843 0.000319821 -0.0771409 -0.0219562 1079.21 
217 1 0.000594195 0.000537974 -0.0506754 -0.0155182 913.085 
218 1 0.00106246 0.000135433 0.0136615 0.0087489 1091.58 
219 1 0.00101837 0.000948337 0.0445405 0.0203771 1129.8 
220 1 0.00125489 0.000525962 0.0515631 -0.0125268 1030.21 
221 1 0.00123482 0.000853621 -0.0778943 -0.0145936 1080.82 
222 1 0.00121443 0.000677128 -0.0363894 -0.00205182 1011.27 
223 1 0.000862093 0.000970509 0.00587015 0.0435698 963.268 
224 1 0.0012725 0.000910767 0.0511206 -0.0380459 942.126 
225 1 0.000494562 0.000642436 -0.000616949 0.0158822 962.46 
226 1 0.000705202 0.000245871 -0.00320602 -0.0154421 1067.23 
227 1 0.000195568 0.000339692 0.0675346 0.00229497 984.472 
228 1 0.000392678 0.000486545 0.00123961 -0.0208817 1160.28 
229 1 0.000479902 0.000449952 -0.0128572 -0.0606602 1018.92 
230 1 0.000256806 0.00052906 -0.0283286 0.0132433 947.124 
231 1 0.000565395 0.000605071 0.0162846 -0.00560859 1005.17 
232 1 0.000578585 0.000560088 -0.00808397 -0.00636561 991.185 
233 1 0.000479079 0.000550753 -0.0367204 0.0313741 1086.86 
234 1 0.000641914 0.000935824 0.0187771 0.0123081 1068 
235 1 0.000652895 0.000775337 0.0417116 -0.0104354 1222.25 
236 1 0.000630571 0.000875713 -0.00786419 0.040005 1122.32 
237 1 0.000441243 0.000279588 -0.0808651 -0.0552444 1073.67 
238 1 0.000598508 0.000458125 -0.05378 0.000735715 1104.99 
239 1 0.00100282 0.000450724 -0.00090312 0.113598 1170.72 
240 1 0.000312367 0.000326119 -0.00862704 0.0688424 1137.8 
241 1 0.000817883 0.000515462 -0.00229234 0.0136686 990.455 
242 1 0.000987415 0.000863938 -0.0517244 -0.0705825 816.252 
243 1 0.00103077 0.00057563 -0.0791782 0.034191 1043.73 
244 1 0.000551027 0.000467983 0.0404621 -0.0395639 1075.06 
245 1 0.000333933 0.000795456 -0.0491602 0.0969622 1102.66 
246 1 0.000738861 0.000481886 -0.0787207 0.00365727 1057.19 
247 1 0.000481849 0.000670389 0.0428792 -0.0203084 1069.28 
248 1 0.00105969 4.96777e-05 0.0129862 0.0622699 1027.04 
249 1 0.00111053 0.000469318 -0.0233015 0.015827 978.742 
250 1 0.00105281 0.000327738 0.0385619 0.0558805 1076.7 
251 1 0.00101011 0.000398413 0.032425 0.0782465 1140.96 
252 1 0.000832264 0.000432437 0.0444153 0.0120871 993.716 
253 1 0.000847203 6.3408e-05 -0.0383645 -0.0138108 1134.27 
254 1 0.0010211 0.000275698 0.0297322 -0.0498549 1069.67 
255 1 0.000568974 0.000490695 -0.0582313 -0.0222023 1105.71 
256 1 0.000838196 0.000487287 0.00747914 -0.0121026 1010.64 
257 1 0.000728416 0.000630423 -0.0296733 -0.043221 1090.26 
258 1 0.000163716 0.000475633 -0.0427926 0.0051701 1133.19 
259 1 0.000294463 0.000382058 -0.0427126 0.0331747 1010.27 
260 1 0.0004885 0.0011711 0.0179215 -0.00992974 928.941 
261 1 0.000144053 0.000399075 -0.0215512 0.0165967 1105.11 
262 1 0.0008854 0.000801559 0.0273159 -0.00560602 890.331 
263 1 0.000617545 0.000374807 -0.0710603 -0.0455305 1036.78 
264 1 0.000514299 0.000898059 -0.0222799 -0.00256692 1232.28 
265 1 8.78454e-05 0.000320828 0.00272302 0.0297272 1157.35 
266 1 0.000463753 0.000737513 -0.049549 0.00987952 1031.74 
267 1 0.00130189 0.000583214 -0.00277514 0.0151745 1049.01 
268 1 0.000667565 0.00105244 0.0713253 -0.0139246 845.306 
269 1 0.000293006 0.000480754 0.00311656 -0.0148259 1001.12 
270 1 0.000659253 0.000458423 0.00410832 -0.0121385 1074.56 
271 1 0.000823697 0.000337647 0.0185838 0.0711345 963.685 
272 1 0.00110323 0.00040276 0.110319 0.0316947 1050.3 
273 1 0.000881709 0.000917187 0.01618 -0.0166006 904.418 
274 1 0.00100841 0.000437257 -0.012607 -0.0297534 1147.82 
275 1 0.000809499 0.000481299 0.0319789 -0.0206656 1073.49 
276 1 0.000802314 0.000438633 -0.00237041 -0.0476489 1037.78 
277 1 0.0010683 0.000468888 0.00402791 0.0193265 970.755 
278 1 0.000599209 0.000505805 0.0342426 0.0193197 889.071 
279 1 0.000829885 0.000286756 0.0282406 -0.022863 989.672 
280 1 0.000508366 0.000402065 -0.0332116 0.0868717 1001.55 
281 1 0.000546333 0.000733634 0.00845706 0.0537052 1114.54 
282 1 0.00105795 0.000700548 0.0299941 0.0693643 759.604 
283 1 0.000870784 0.000557615 -0.0332315 0.00184557 1030.76 
284 1 0.00112922 0.000282762 -0.0500942 -0.11884 1100.9 
285 1 0.001086 0.000476788 -0.0441123 -0.0708297 996.96 
286 1 0.00113386 0.000890966 0.0677682 0.0213466 1024.65 
287 1 0.00128873 0.000554502 -0.0332164 -0.0226086 1074.17 
288 1 0.000913549 0.000524903 -0.0146109 0.0417181 821.205 
289 1 0.00098496 0.000193867 0.0381857 0.0322257 1022.86 
290 1 0.000201138 0.000612711 -0.0138866 0.0457035 1044.98 
291 1 0.000461349 0.00040576 -0.025938 -0.0533668 1032.1 
292 1 0.000196656 0.000404731 0.126504 0.0708575 1154.31 
293 1 0.000389725 0.000916746 0.0868328 -0.0161355 1005.43 
294 1 0.000600915 0.000690508 -0.0200576 -0.00472759 1158.6 
295 1 0.00046496 0.00048131 -0.107633 0.0602715 1099.11 
296 1 0.000697789 0.00105429 -0.0527875 0.036715 1018.98 
297 1 0.000887907 0.000854221 -0.0412517 0.00435958 959.473 
298 1 0.000552007 0.000968117 0.0983362 0.0514163 902.407 
299 1 0.000386123 0.000920011 -0.0154332 -0.0191157 1000.22 
300 1 0.000825146 0.00063209 -0.0350599 -0.038303 931.574 
301 1 0.000318718 0.00040114 -0.0183067 -0.0406822 1104.4 
302 1 0.000966618 0.00049252 0.0693586 -0.00862788 1147.79 
303 1 0.00036503 0.000536937 0.0028241 -0.0316545 1048.82 
304 1 0.00062293 0.000716141 0.108647 -0.00432892 859.705 
305 1 0.000707278 0.000603325 0.0208454 -0.059723 1056.86 
306 1 0.00110646 0.000379308 0.0804886 -0.0108385 1038.72 
307 1 0.000701955 0.000652235 0.0493515 -0.0137657 969.265 
308 1 0.000612857 0.000457142 -0.00518636 -0.0196894 1095.79 
309 1 0.000335274 0.000964684 0.0414924 -0.000650691 890.677 
310 1 0.000740078 -5.25841e-05 0.0257642 0.0126104 1060.47 
311 1 0.000834331 0.000384169 0.0240882 0.00345736 1096.9 
312 1 0.000905619 0.000421982 -0.0607151 -0.0671963 1108.93 
313 1 0.000966029 0.000383255 -0.0303728 -0.0570346 1107.88 
314 1 0.000830475 0.000589236 -0.0569815 -0.0339419 1117.23 
315 1 0.00119675 0.000402273 0.073291 0.0530759 974.454 
316 1 0.0011654 0.000612832 -0.0234877 -0.00488163 1108.27 
317 1 0.000865231 0.000530517 -0.02056 -0.0598432 1200 
318 1 0.001541 0.00034618 -0.0586836 -0.0132236 1034.99 
319 1 0.0010516 0.000731161 -0.00564554 0.0131853 860.068 
320 1 0.00117592 0.000527412 0.000293225 0.0401319 1085.28 
321 1 0.000548413 0.00105096 0.0432891 0.0708395 1186.34 
322 1 0.00037489 0.0007517 0.0214792 -0.066065 918.065 
323 1 0.000315942 0.000502426 -0.0556581 0.0433569 1063.76 
324 1 0.000505102 0.000753183 -0.0306436 0.0113554 1036.73 
325 1 0.000401415 0.000695631 -0.0204945 0.00397609 1024.21 
326 1 0.000757429 0.000295276 0.0365097 -0.0212781 1026.92 
327 1 0.000398416 0.000500019 0.0598311 0.0478777 1064.58 
328 1 0.000330804 0.000915373 0.0033056 -0.0189889 998.889 
329 1 0.000724624 0.000624736 -0.0207152 0.0254349 1089.54 
330 1 0.000745406 0.000433648 -0.0189751 -0.0248644 1169.4 
331 1 0.000616564 0.00059915 -0.000676641 -0.0102046 1033.63 
332 1 0.00097079 0.000619257 0.0909233 -0.00926686 1065.91 
333 1 0.000871468 0.000698356 0.0888091 -0.0402852 1018.57 
334 1 0.000613245 0.000326041 -0.0714803 0.0365484 1124.95 
335 1 0.00112524 0.000497575 -0.0213735 0.00811767 1171.63 
336 1 0.000564628 0.000462125 0.0104232 -0.0181577 1122.09 
337 1 0.000363038 0.000498265 0.00895082 -0.00141712 1228.52 
338 1 0.000830904 0.000705981 0.00759136 0.0132217 981.941 
339 1 0.000946993 0.000559321 0.0109365 -0.0123692 895.516 
340 1 0.00121518 0.000787606 0.00106757 0.0743146 984.87 
341 1 0.000961464 0.000524106 0.0490234 -0.00360094 1016.68 
342 1 0.000681015 0.000361196 -0.0310896 0.0434657 1053.28 
343 1 0.0007001 0.000600692 -0.0164149 0.0062379 1049.35 
344 1 0.00129698 0.000732832 -0.00558743 -0.090614 970.662 
345 1 0.000675412 0.000682523 -0.0202839 -0.00856697 965.599 
346 1 0.000890378 0.000446201 0.0171196 0.00583093 1066.07 
347 1 0.00124408 0.000616137 -0.0528078 -0.0316131 1093.15 
348 1 0.000665555 0.000681611 0.0379066 0.00136274 911.062 
349 1 0.0010122 0.000510843 -0.0171135 0.0218563 1110.74 
350 1 0.00108428 0.000844341 0.122905 0.0192179 1110.91 
351 1 0.000911722 0.00049382 -0.0313756 -0.0452168 811.477 
352 1 0.0013189 0.000765231 0.038078 -0.0300992 1041.09 
353 1 -4.56529e-05 0.000145945 -0.077416 -0.106642 997.626 
354 1 0.000284613 0.000586773 -0.0340373 0.0192467 1091.89 
355 1 0.000256085 0.00108632 0.00572693 -0.00523854 1158.18 
356 1 0.000464028 0.000597884 0.0355487 -0.0339339 1032.27 
357 1 0.000329801 0.000541517 -0.021484 0.0872234 945.681 
358 1 0.000629029 0.00031001 0.0467818 -0.0476079 1119.55 
359 1 0.000453812 0.000583453 0.0273451 0.0120946 1057.67 
360 1 0.000868775 0.000838111 -0.0219603 0.0388254 985.604 
361 1 0.000670218 0.000320659 0.0588869 0.00536706 1024.41 
362 1 0.000443116 0.000793625 0.0284933 0.0115232 1030.64 
363 1 0.000311498 0.000844118 0.0335891 -0.0205083 1122.73 
364 1 0.000507947 0.00057882 0.032508 -0.0238218 1044.68 
365 1 0.000564663 0.000664463 -0.0289013 0.0160777 982.547 
366 1 0.000404306 0.000166004 0.0352775 -0.0194004 1179.01 
367 1 0.000622952 0.000612703 0.0568125 0.0573274 1020.48 
368 1 0.000755443 0.000397734 -0.0108113 -0.0747135 1070.09 
369 1 0.00103136 0.000988917 0.0147453 -0.0147755 1114 
370 1 0.000756682 0.000807393 -0.0562921 -0.0350339 1141.81 
371 1 0.000766547 0.000273019 0.000449269 -0.0622188 1014.07 
372 1 0.000862683 0.000588985 -0.120438 -0.0672988 974.356 
373 1 0.000913595 0.000252837 -0.00823391 -0.0702256 1096.65 
374 1 0.00102994 0.000592584 0.0130575 0.0536555 1008.21 
375 1 0.000829991 0.000817591 0.0040261 -0.00587156 1098.16 
376 1 0.000907592 0.000647217 -0.000209367 -0.021467 1113.37 
377 1 0.000824119 0.000296033 0.00104054 -0.0246352 1023.48 
378 1 0.000914311 0.000670554 0.0354438 0.0584389 1027.62 
379 1 0.000947897 0.000682579 0.0517694 0.0017622 1134.55 
380 1 0.00101696 0.00045442 0.0338744 -0.0257996 1119.37 
381 1 0.000898011 0.000250031 0.0910534 0.00365948 1012.88 
382 1 0.00117598 0.000672717 -0.0608358 0.00692479 946.415 
383 1 0.000698826 0.000736762 -0.0548082 -0.00855243 1064.62 
384 1 0.000910545 0.000638757 0.0113049 0.0515244 1159.44 
385 1 5.69509e-05 0.000748639 0.0429442 -0.0717862 1054.88 
386 1 0.000112917 0.000525076 -0.0621944 0.0630198 826.152 
387 1 0.000194375 0.000784004 0.0648929 0.0421205 1137.13 
388 1 0.000549011 0.000780387 0.00270835 0.0130946 1033.54 
389 1 0.000415306 0.000596394 -0.0581505 0.0369099 965.243 
390 1 0.000282617 0.000620579 0.0684363 0.0163469 1047.5 
391 1 0.000518507 0.000904372 -0.0141319 -0.0798901 1153.46 
392 1 0.000719474 0.00123167 -0.0443736 0.0339912 1151.45 
393 1 0.000679652 0.000902466 0.100865 -0.00170733 1083.16 
394 1 0.000679345 0.00103402 -0.0311572 0.0080371 991.689 
395 1 0.000444294 0.000656702 -0.00759384 -0.0507776 1131.61 
396 1 0.000560808 0.000711552 0.04598 0.0342353 1020.06 
397 1 0.000304614 0.00032686 0.037893 -0.143478 1107.21 
398 1 0.00074238 0.000489668 0.0141948 0.0848205 1060.09 
399 1 0.000544329 0.00101689 -0.0260742 0.00848744 1069.3 
400 1 0.000763918 0.000750337 0.0291809 -0.0782862 1003.88 
401 1 0.000734404 0.000545416 0.0824444 -0.0104251 1019.9 
402 1 0.000669025 0.000526353 0.0266759 -0.0250629 1060.55 
403 1 0.000564212 0.00067677 -0.0206563 -0.0160726 1022.68 
404 1 0.000764536 0.000634233 -0.00737882 -0.0488957 1060.05 
405 1 0.000887603 0.000601171 0.0202191 -0.0155437 758.076 
406 1 0.000446628 0.000457674 0.0482006 -0.0132879 1134.23 
407 1 0.000992281 0.000526281 0.0393901 0.0104203 1030.22 
408 1 0.00114208 0.000441726 0.0246278 0.015108 1081.13 
409 1 0.000791561 0.000398187 0.0281391 0.0348976 1216.67 
410 1 0.000779181 0.000611929 0.0302059 0.0937165 1096.41 
411 1 0.00122784 0.00064985 0.0821001 -0.0491648 1103.94 
412 1 0.00131422 0.000940835 -0.0456219 0.00612163 870.444 
413 1 0.00114776 0.000494858 -0.00878679 0.00431238 1211.67 
414 1 0.00151509 0.00056249 7.87251e-05 -0.0591705 964.819 
415 1 0.00129077 0.000403693 0.0535924 -0.00839143 926.19 
416 1 0.00103379 0.000522146 -0.032365 -0.0949175 1170.46 
417 1 0.000368423 0.000467513 0.0556874 -0.010394 1126.63 
418 1 -8.35533e-05 0.000928753 0.0298987 -0.0178377 1056.17 
419 1 3.76897e-05 0.000327033 0.0409755 -0.0555683 1057.84 
420 1 0.000454268 0.000748541 0.0400903 0.0117014 1042.7 
421 1 0.00048615 0.000821288 -0.0376912 -0.0371119 1119.42 
422 1 0.000696667 0.000712602 0.00306378 0.0231198 1130.58 
423 1 0.000273404 0.000670647 0.0370119 -0.0424354 889.277 
424 1 0.000658716 0.000530473 -0.0437811 -0.0125728 1087.37 
425 1 0.000707792 0.000885292 0.0202638 0.00805686 1065.25 
426 1 0.000845396 0.000519565 -0.0460578 0.0764909 1114.12 
427 1 0.00045619 0.000930765 -0.00205162 0.00429518 995.329 
428 1 0.0008364 0.000580684 -0.0447449 -0.0203565 1160.46 
429 1 0.000615177 0.000937056 -0.0266968 0.0165228 990.495 
430 1 0.000991543 0.000991565 -0.0121921 0.022798 1046.24 
431 1 0.000831911 0.000735659 -0.0359064 0.0243178 1010.27 
432 1 0.00083211 0.000850995 -0.0461154 -0.0301494 1110.3 
433 1 0.00122264 0.000629636 0.0369703 0.0463105 1045.03 
434 1 0.00101337 0.000666725 0.0395352 -0.00870806 1124.31 
435 1 0.000434456 0.0008979 -0.0963099 0.0251605 797.147 
436 1 0.000847852 0.000586699 0.0570774 0.104925 1148.01 
437 1 0.0006053 0.00057704 0.0354337 0.084755 1150.34 
438 1 0.000873466 0.000647744 0.0119449 0.0171751 1024.36 
439 1 0.000880758 0.000541548 -0.00423601 0.0341777 1067.05 
440 1 0.00117672 0.000630209 -0.0409126 0.0290446 1063.4 
441 1 0.000828977 0.000746895 0.0181186 0.0595279 921.198 
442 1 0.000792683 0.000648563 -0.109599 0.00946419 978.926 
443 1 0.00113146 0.000516393 0.0102159 0.0113751 1126.39 
444 1 0.00144479 0.000543867 -0.053556 0.0151987 1075.34 
445 1 0.00103344 0.000788289 -0.0407272 0.0262623 1120.55 
446 1 0.00137635 0.000593127 0.0378424 -0.012737 1033.7 
447 1 0.00106927 0.000593538 -0.00227959 -0.0131312 1085.37 
448 1 0.00147484 0.000413439 0.0117805 -0.00767016 980.179 
449 1 0.000555377 0.000606606 -0.0726215 0.0104143 1067.62 
450 1 0.000588997 0.00076422 -0.0188851 -0.0375878 1205.26 
451 1 0.000620663 0.000640029 0.0720116 0.0188665 1087.46 
452 1 0.000361005 0.000747663 0.00562174 0.0790041 948.529 
453 1 0.000376274 0.000933608 -0.0578437 0.0266473 988.085 
454 1 0.000665494 0.000719326 0.0217001 -0.052739 1083.11 
455 1 0.000321382 0.000745603 0.0508805 0.0336325 1137.19 
456 1 0.000544202 0.000636932 -0.0862433 -0.0106845 1086.51 
457 1 0.000860251 0.000748882 0.0222253 -0.00666987 1070.48 
458 1 0.000566668 0.000418639 -0.0243047 -0.0328516 1164.76 
459 1 0.000223406 0.000537299 -4.21474e-07 -0.000709424 1175.88 
460 1 0.000822248 0.000992388 -0.0570887 0.0121736 1101.41 
461 1 0.000464447 0.000373742 -0.0952595 -0.0152635 1027.48 
462 1 0.000319327 0.000797094 0.0360646 -0.0499593 1172.63 
463 1 0.000958991 0.00121418 -0.104526 0.029716 1032.88 
464 1 0.000677736 0.000965942 -0.0481336 0.061561 994.402 
465 1 0.00101331 0.000734 0.049998 0.0163652 1082.13 
466 1 0.00090331 0.000920739 -0.0530984 0.0109982 1110.53 
467 1 0.000951308 0.00100127 0.0268001 -0.0748083 1043.11 
468 1 0.000975319 0.000760603 0.0866615 -0.10012 1025.21 
469 1 0.000992306 0.000890853 -0.0331968 -0.021603 949.354 
470 1 0.000618632 0.000540974 -0.0633829 -0.0384075 947.935 
471 1 0.00126653 0.000757518 -0.0758107 0.0480038 972.274 
472 1 0.000600012 0.00113043 0.0139259 0.0026758 1055.54 
473 1 0.000887741 0.000755793 0.0589032 0.0481657 1102.79 
474 1 0.000882665 0.000688714 0.0378429 -0.0637792 972.637 
475 1 0.00101351 0.00092005 0.0795438 0.039618 1004.82 
476 1 0.00124042 0.000701799 0.104546 0.0016205 837.48 
477 1 0.00136197 0.00116893 -0.043183 0.0833229 964.845 
478 1 0.00088712 0.000740101 -0.100732 -0.0171546 1143.43 
479 1 0.00108069 0.000724957 0.0082657 -0.0239463 906.328 
480 1 0.00103798 0.000621754 -0.0186827 -0.0542198 1081.52 
481 1 0.000294154 0.000830337 -0.0595286 0.00351788 1104.54 
482 1 0.000453983 0.000963758 0.015422 -0.00538399 1083.89 
483 1 0.000249393 0.000494402 -0.0506566 -0.00324959 981.268 
484 1 0.000586974 0.000829046 0.00923702 0.0677716 930.901 
485 1 0.000448533 0.000945712 0.0248101 -0.0130723 1056.7 
486 1 0.000528797 0.000695676 -0.00727106 0.0032789 1104.23 
487 1 0.000597585 0.000740896 0.00278551 -0.0437384 1066.36 
488 1 0.000375272 0.000732374 0.0547386 -0.0103909 974.112 
489 1 0.000537787 0.000955774 -0.0221129 -0.0954028 845.502 
490 1 0.000384263 0.000986025 0.04559 -0.0374799 1110.02 
491 1 0.000443683 0.000607337 0.0520854 0.0321932 1101.7 
492 1 0.000878636 0.000722991 0.0313503 0.034661 1108.27 
493 1 0.000631296 0.000982983 -0.0115927 0.0322262 1022.17 
494 1 0.000616188 0.000556173 0.0275018 -0.0638052 1040.94 
495 1 0.000478372 0.000799119 -0.0113135 0.0266914 1049.73 
496 1 0.00104801 0.000836649 -0.0448287 -0.0037947 891.624 
497 1 0.000666281 0.000711726 -0.00867621 0.0254572 1079.38 
498 1 0.00104707 0.000860795 0.0772775 -0.0564542 996.238 
499 1 0.000544978 0.000719487 0.0567524 0.0170149 1111.86 
500 1 0.000646449 0.000750815 -0.034964 -0.0179615 1095.31 
501 1 0.000719024 0.00081898 0.0237566 -0.0445733 790.83 
502 1 0.00107697 0.000356627 0.0259949 -0.0353493 844.345 
503 1 0.00114815 0.000640764 0.0272295 -0.0158812 1011.25 