ITEM: TIMESTEP
58000
ITEM: NUMBER OF ATOMS
1024
ITEM: BOX BOUNDS pp pp pp
0 0.0008
0 0.0008
-1e-06 1e-06
ITEM: ATOMS id type xu yu vx vy c_rho_peratom 
1 2 0.000350375 0.000362096 0.0120946 0.0118996 1066.12 
2 2 0.000348788 0.000368136 -0.017371 -0.0255489 1079.08 
3 2 0.000352251 0.000369453 -0.0352105 0.00528168 1046.39 
4 2 0.00033195 0.000372796 0.0302199 -0.0742554 1128.98 
5 2 0.000315506 0.000364815 -0.0231892 0.0462006 1124.87 
6 2 0.000303108 0.00037101 -0.115468 0.0120753 1103.99 
7 2 0.000298535 0.000383587 -0.0293571 -0.039344 1131.92 
8 2 0.000285606 0.000394167 0.024313 0.0511116 1177.14 
9 2 0.000296711 0.000406571 0.00241424 -0.0308521 1110.46 
10 2 0.000283474 0.000414421 0.06065 0.0196845 1144.24 
11 1 0.000954044 0.000702656 -0.0181042 0.0602084 1047.83 
12 1 0.00072879 0.000649481 0.00572642 -0.0163104 1024.59 
13 1 0.000699513 0.000680017 -0.0842831 0.0140391 1091.48 
14 1 0.000715707 0.000413714 0.0330622 0.00830227 1037.98 
15 1 0.000716766 0.00056539 -0.0195926 0.018372 1124.75 
16 1 0.000756168 0.000512462 -0.0494637 -0.017646 1067.86 
17 1 0.000717644 0.000305754 -0.0343424 0.000740415 1081.96 
18 1 0.000841637 0.000683463 -0.0971718 0.0275902 1113.09 
19 1 0.000774751 0.000500531 0.0240607 -0.0304372 1130.55 
20 1 0.000945981 0.000624805 -0.0131978 0.0423239 981.726 
21 1 0.000949615 0.000193882 0.0270595 0.0668118 1002.91 
22 1 0.00102168 0.000463286 0.0374037 -0.0775816 922.218 
23 1 0.000898242 0.000276364 -0.00778731 0.0180274 1125.39 
24 1 0.000830801 0.000246846 0.0270493 -0.0601684 984.24 
25 1 0.00117651 0.000193263 0.065519 0.000139764 1164.56 
26 1 0.000845801 0.000350017 0.0109787 -0.0349359 1162.61 
27 1 0.000997838 0.000155729 -0.0995449 -0.0286578 1044.06 
28 1 0.000886979 0.00034396 0.0264877 -0.0251755 1082.01 
29 1 0.00105326 0.000379072 -0.045771 0.104433 1156.91 
30 1 0.000995479 0.000246558 -0.00144838 0.0151572 1136.15 
31 1 0.000661158 0.000251622 -0.0667622 0.00105874 1141.8 
32 1 0.00117978 0.000326922 2.53038e-05 -0.0315262 914.96 
33 1 0.000184665 0.000227681 -0.0159199 -0.037475 1026.11 
34 1 0.000209402 0.000121402 0.0313771 0.0395063 1072.52 
35 1 0.000325672 0.000328427 0.00298978 0.0733516 1013.93 
36 1 0.000296886 0.000544648 0.0449576 0.0962168 1088.05 
37 1 0.000114197 0.000450848 -0.0080659 0.0724103 1029.37 
38 1 0.000264695 0.000549893 0.0259225 0.0475141 1003.08 
39 1 0.000451588 0.000570263 -0.00492449 -0.0369188 1061.96 
40 1 0.000475158 0.000317027 -0.0541803 -0.0203293 1035.32 
41 1 0.000565751 0.000410696 -0.0778935 -0.0286899 989.507 
42 1 0.0006067 0.000345919 -0.0982859 -0.0313145 858.048 
43 1 0.000600283 0.000696126 -0.017262 0.0707177 1012.95 
44 1 0.000722651 0.00032018 0.0273317 -0.0250813 1112.26 
45 1 0.000817172 0.000416614 -0.0296893 -0.0214643 1025.53 
46 1 0.000843219 0.00061503 -0.0167388 0.0279656 1107.45 
47 1 0.000639145 0.00056511 0.0457568 -0.0388444 1116.53 
48 1 0.000645128 0.000341843 0.00608097 -0.034866 944.049 
49 1 0.000792391 0.000223947 0.0414144 0.0193764 1099.05 
50 1 0.000726278 0.000484029 -0.0209306 -0.0848544 976.41 
51 1 0.000703235 0.000507608 -0.0645333 -0.0368843 1082.87 
52 1 0.000689306 8.44628e-05 0.0064256 -0.0369241 1035.13 
53 1 0.000852031 0.000430987 -0.0652221 0.0507171 1120.74 
54 1 0.000974082 0.000389252 0.0230119 0.0146252 1047.44 
55 1 0.000776296 0.000157995 -0.0192092 -0.00981577 987.796 
56 1 0.000960486 0.000293615 -0.0250689 -0.0808095 1123.64 
57 1 0.00125744 0.000527787 -0.0637572 0.0656359 965.338 
58 1 0.000773117 0.000363666 -0.0656232 -0.0203786 1034.12 
59 1 0.000926693 0.000364771 0.0977624 -0.0334009 906.833 
60 1 0.00130628 0.00032804 -0.00925223 -0.0498122 953.671 
61 1 0.00114811 0.000580469 0.0317095 -0.0358499 1065.04 
62 1 0.000815396 0.000338956 -0.0242291 0.0222646 1112.67 
63 1 0.000994971 0.00042161 0.0319138 0.0194653 1256.81 
64 1 0.00100348 0.000270089 -0.0290384 -0.0683168 1062.92 
65 1 0.000149445 0.000519761 -0.0985761 0.0178916 995.175 
66 1 0.000528109 0.00036046 -0.0231157 -0.036334 1018.67 
67 1 0.000425904 0.000502663 -0.0125135 -0.0213544 1110.09 
68 1 0.000466613 0.000542051 0.016196 0.0335066 927.348 
69 1 0.000121577 0.000485435 0.03131 0.0564081 1068.93 
70 1 0.00065102 0.000359092 -0.0621201 0.0425426 958.166 
71 1 0.000450991 0.000482563 -0.0620585 0.0174935 1038.17 
72 1 0.000600507 0.000385143 -0.0238123 -0.0333746 873.373 
73 1 0.000264401 0.000516142 0.0293318 -0.0390654 1041.79 
74 1 0.000646155 0.000617344 0.00190005 0.0466414 1020.8 
75 1 0.000603285 0.000711999 0.00694912 0.00289168 965.975 
76 1 0.000562922 0.000581725 -0.0330951 -0.0863401 866.211 
77 1 0.000739584 0.000623015 -0.0817684 -0.0188487 1070.01 
78 1 0.000678182 0.000536488 -0.0104446 0.0235854 1069.2 
79 1 0.000398704 0.000240683 0.0377749 0.0741099 956.133 
80 1 0.000656248 0.000207653 0.00264824 -0.0626431 972.605 
81 1 9.13843e-05 0.000217011 -0.0282393 -0.0412905 1062 
82 1 0.000728104 0.000396453 0.00703107 0.0358648 1143.81 
83 1 0.000753281 0.000675901 -0.0190927 -0.0177733 1048.19 
84 1 0.000997889 0.00034983 -0.04117 0.0223159 1042.78 
85 1 0.000936372 0.000183225 -0.0570505 0.0401479 1036.44 
86 1 0.000725002 0.000658884 0.0174727 -0.037171 1068.14 
87 1 0.000976765 0.000400243 -0.0525574 -0.110555 1155.61 
88 1 0.00112063 0.000211293 0.0170164 0.0112901 1061.85 
89 1 0.000821135 0.000223338 -0.0089254 0.0915798 1114.42 
90 1 0.000957576 0.000248418 0.0254206 0.0472519 900.101 
91 1 0.000767475 0.000229142 -0.0258156 0.00527887 1069.97 
92 1 0.00097286 0.000529219 -0.0251286 -0.0782464 1137.56 
93 1 0.00100727 0.00032274 0.0414147 -0.107029 1038.74 
94 1 0.00110939 0.000493419 -0.00569769 0.0391048 1138.02 
95 1 0.00108582 0.00030485 -0.0217313 0.021757 967.9 
96 1 0.00115831 0.000484775 0.0382414 0.0363327 1036.95 
97 1 0.000238686 0.000929414 -0.012426 -0.0461171 1063.43 
98 1 0.000233481 0.000284172 -0.0521215 -0.0656917 978.006 
99 1 5.89769e-05 0.000316063 -0.0655619 0.0365301 1055.84 
100 1 0.000297592 0.000648907 -0.0454194 -0.0647289 1026.79 
101 1 0.000398231 0.000573345 -0.0144429 -0.0338097 889.431 
102 1 0.000589407 0.000428305 0.0108524 -0.0231763 1130.49 
103 1 0.000645747 0.00104986 -0.0326906 0.0455802 1023.26 
104 1 0.0007048 0.000563198 -0.0448724 0.000887817 1090.25 
105 1 0.000418804 0.000551138 0.0884872 -0.0518523 873.376 
106 1 0.000316069 0.000251936 0.00283852 0.0437907 1109.68 
107 1 0.000810621 0.000515983 -0.0099956 0.0247145 1040.08 
108 1 0.000653782 0.00044303 0.0431449 0.0662199 1070.09 
109 1 0.000596968 0.000539677 0.0639173 0.0735945 1098.5 
110 1 0.00058459 0.000469858 0.0423905 0.0233556 1085.59 
111 1 0.000678371 0.000477065 -0.0503039 -0.0117182 1018.69 
112 1 0.000658862 0.000534385 -0.0156524 -0.0448126 1111.09 
113 1 0.00068593 0.000740948 0.0635497 0.0411958 1017.95 
114 1 0.000618351 0.000435821 -0.0385821 -0.0240477 1035.12 
115 1 0.000649667 0.00065863 -0.00364376 -0.0427071 1031.25 
116 1 0.000787042 0.000399406 -0.0582061 0.0202388 1012.43 
117 1 0.00110487 0.000190196 -0.00377475 0.0244453 1049.88 
118 1 0.000909719 0.000392211 0.0285861 -0.0280537 1045.97 
119 1 0.00100225 0.000296713 -0.038035 0.00726394 947.536 
120 1 0.00095836 0.000644404 0.0501024 -0.0324785 1000.26 
121 1 0.00106319 0.000411716 -0.00368519 0.044195 1143.04 
122 1 0.0010617 0.000629438 0.051646 -0.0622709 1043.81 
123 1 0.00103432 0.000797396 0.0399398 0.00745617 860.084 
124 1 0.000831182 0.000532319 0.00575876 -0.0639179 967.18 
125 1 0.000894439 0.000503049 -0.037356 0.0174285 1104.84 
126 1 0.00111474 0.000500138 0.0782839 0.0131342 1084.9 
127 1 0.000635511 0.000467033 0.0303336 0.00544052 1007.22 
128 1 0.000892163 0.000490371 0.0019123 0.00834311 1147.14 
129 1 0.00017215 0.000155416 0.0709624 0.0255699 1141.17 
130 1 0.000118076 0.000213929 0.05181 0.0214263 1061.56 
131 1 0.00041459 0.000402921 0.0399223 0.0351525 1050.26 
132 1 0.000688721 0.000560136 -0.00530532 0.0120338 1050.17 
133 1 0.000394354 0.000306387 -0.0396184 0.0182065 1025.72 
134 1 0.000360846 0.000416924 0.0557499 -0.00557673 1003.34 
135 1 0.000255065 0.00025689 -0.00886647 -0.032965 998.461 
136 1 0.000201169 0.000494035 0.0683031 -0.01324 844.31 
137 1 0.000634755 0.000531396 -0.0225052 0.0335795 1056.2 
138 1 0.000258784 0.00064092 0.0212189 -0.0481266 931.928 
139 1 0.000658515 0.000591519 0.0193136 0.0290078 1186.56 
140 1 0.00049738 0.000692486 0.00687772 0.00544675 1149.01 
141 1 0.000681968 0.000613102 -0.013836 -0.0122364 1017.72 
142 1 0.000756086 0.000287504 0.0458701 -0.051649 1029.19 
143 1 0.000482558 0.000794929 -0.088476 -0.0111968 1154.2 
144 1 0.000742962 0.000520015 0.0523707 0.0696882 1004.13 
145 1 0.000653688 0.000444648 0.00617769 0.0279666 1071.58 
146 1 0.000710919 0.000685716 -0.00102982 0.0151307 1126 
147 1 0.00100235 0.000678737 0.0573651 -0.0476356 1055.71 
148 1 0.000969883 0.000424841 -0.054466 0.0195732 1062.78 
149 1 0.000966302 0.000743062 0.0267888 -0.00590312 1258.59 
150 1 0.000731001 0.000202325 -0.024032 -0.0139327 942.006 
151 1 0.00110751 0.000792026 -0.00210528 0.0444209 1024.83 
152 1 0.000614968 0.000233659 -0.0249157 -0.00611835 965.253 
153 1 0.00103553 0.000501782 0.0558668 -0.0418732 882.838 
154 1 0.000870412 0.000358433 -0.0375248 -0.0610586 1188.01 
155 1 0.000898245 0.000660328 0.105474 0.0170924 1051.83 
156 1 0.00106936 0.000733732 0.0328341 0.0455733 1119.68 
157 1 0.000712371 0.000738783 0.0250501 0.0532066 893.609 
158 1 0.000741609 0.000298252 -0.0407209 -0.0209544 1137.59 
159 1 0.00130097 0.000425585 -0.00279664 0.0493371 1078.65 
160 1 0.000935768 0.000259353 -0.00794393 0.0233524 1062.92 
161 1 0.000214485 0.000449121 0.0536626 -0.0375853 1062.35 
162 1 0.000391495 0.000737814 0.0166549 -0.0428113 1016.56 
163 1 0.000444004 0.000443914 -0.0448921 -0.0832521 1010.01 
164 1 0.000243813 0.00043896 -0.0145848 -0.0246337 1007.33 
165 1 0.000379614 0.000219448 -0.0107667 0.0209999 973.582 
166 1 0.000446463 0.000662969 0.0403245 0.0495575 1108.57 
167 1 0.000772757 0.000574487 -0.0495376 0.0416252 929.354 
168 1 0.000422418 0.000698825 -0.121515 -0.00586095 1079.41 
169 1 0.000316603 0.000571078 -0.00259555 -0.0213796 1114.65 
170 1 0.000408094 0.000689716 0.0352686 -0.00841852 1016.84 
171 1 4.23191e-05 0.000467949 -0.0811786 0.0602879 1057.57 
172 1 0.000517264 0.000533161 -0.0630851 -0.0489572 1063.22 
173 1 0.000754985 0.000563243 -0.0313194 0.0211322 1013.8 
174 1 0.000773832 0.000691667 0.0372876 -0.0749796 1067.4 
175 1 0.000556949 0.000485629 0.0311543 -0.0254044 1026.66 
176 1 0.000599197 0.000564205 0.0417869 -0.0627421 994.923 
177 1 0.000894389 0.000543283 -0.0244639 0.00861463 852.497 
178 1 0.000830183 0.000324837 -0.0206499 -0.0119755 992.143 
179 1 0.000807598 0.000406894 0.020678 0.0392492 988.919 
180 1 0.000636188 0.000602624 0.0367625 0.00861637 1014.65 
181 1 0.000945781 0.000301916 0.00309167 0.0442143 1130.63 
182 1 0.000801239 0.000468356 -0.0520832 0.0753818 1124.17 
183 1 0.000946201 0.000763995 -0.0267763 -0.0157587 1041.72 
184 1 0.00101923 0.000617188 -0.0178845 -0.0219627 1083.44 
185 1 0.000933156 0.000532537 0.0055781 0.0596899 983.773 
186 1 0.000849381 0.000577267 -0.00548491 0.0611402 1012.72 
187 1 0.000937716 0.000344177 0.0390262 -0.0234438 1015.03 
188 1 0.00103491 0.000808264 0.0588299 -0.0229072 843.947 
189 1 0.00118196 0.000456609 -0.0318949 -0.00500481 962.061 
190 1 0.000881193 0.000354262 -0.0562979 0.0304095 1115.44 
191 1 0.00107148 0.000540314 -0.0141147 0.0174563 1032.78 
192 1 0.000861411 0.000513465 0.073017 -0.00807712 974.72 
193 1 -3.88196e-05 0.000850664 0.0924271 -0.084566 996.774 
194 1 2.01483e-05 0.000480068 -0.0481824 0.00979204 1139.71 
195 1 0.00040058 0.000517941 0.00387813 -0.135321 1001.56 
196 1 0.000185089 0.000489196 0.00532419 0.0203617 896.21 
197 1 0.000439612 0.00102726 -0.0406868 0.0130939 1110.51 
198 1 0.000173833 0.000925109 0.0260155 0.0313421 1081.38 
199 1 0.000271129 0.000729672 -0.00446056 0.00862138 1101.68 
200 1 0.000332947 0.000210528 -0.0281941 -0.07519 1050.31 
201 1 0.000359198 0.000511749 0.00590078 0.046824 1017.97 
202 1 0.000736363 0.000355824 0.0478168 -0.00191482 1147.56 
203 1 0.000482408 0.000584363 -0.0411188 0.0496149 1047.77 
204 1 0.000791444 0.000621865 -0.0367411 -0.0240068 1054.45 
205 1 0.000715914 0.000618749 0.0222876 -0.0233374 948.622 
206 1 0.000655286 0.000716739 -0.0301019 -0.0885359 1113.58 
207 1 0.00056393 0.000621119 -0.0358458 0.00959734 1106.33 
208 1 0.000652799 0.000723931 -0.0350496 0.0326048 1088.45 
209 1 0.00048625 0.000439634 0.0308851 0.0261448 1060.1 
210 1 0.000750526 0.000417817 0.0176122 -0.0251136 1104.56 
211 1 0.00104652 0.000363198 -0.0859935 0.0579121 1209.23 
212 1 0.000778922 0.000736138 -0.00870489 0.0908556 1068.91 
213 1 0.00113896 0.000426745 -0.0265803 0.0512539 1056.25 
214 1 0.00106411 0.000427494 -0.00810787 0.0507479 1064.58 
215 1 0.00110084 0.000478481 0.0177047 0.00433113 1136.41 
216 1 0.000959201 0.000567012 0.0188479 -0.0285165 1141.15 
217 1 0.000605401 0.000439909 0.0483897 -0.000769894 1100.74 
218 1 0.00103772 0.000190146 -0.0107512 0.066893 1098.94 
219 1 0.00104466 0.000751868 0.0205648 0.0148237 1109.03 
220 1 0.00104915 0.000295842 0.0312774 0.0549199 928.057 
221 1 0.00100198 0.000840265 -0.0707241 -0.0323363 933.573 
222 1 0.00120761 0.000632371 -0.0929288 0.0349306 975.286 
223 1 0.000757499 0.00091074 -0.022542 -0.000985216 1075.22 
224 1 0.00110935 0.000921349 0.0146851 0.0150867 1101.92 
225 1 0.000170173 0.000481315 0.0221421 0.0207904 957.796 
226 1 0.00047918 0.000336982 -0.0518809 -0.0192689 1053.39 
227 1 7.76921e-05 0.000623153 0.0115976 0.000789394 1095.02 
228 1 0.000201054 0.000634637 -0.0292601 -0.0219281 1041.69 
229 1 0.000307505 0.00057033 0.0159677 0.0959845 1188.33 
230 1 0.000245989 0.000461189 0.0118685 -0.0155559 890.776 
231 1 0.000372446 0.000601652 0.0436134 -0.111914 922.553 
232 1 0.000616733 0.000496991 -0.0153655 0.00771182 943.503 
233 1 0.000500379 0.000653371 0.108546 -0.0289111 1120.6 
234 1 0.000609163 0.000666427 0.0615267 0.0228767 1130.67 
235 1 0.000417596 0.00086105 0.0120773 -0.0263665 1029.87 
236 1 0.000409485 0.000747207 -0.0378291 0.0619088 1083.7 
237 1 0.00028783 0.000573552 0.0265341 -0.000275095 1221.79 
238 1 0.000677935 0.000603266 0.0410118 0.0407294 1121.08 
239 1 0.000872791 0.000437736 -0.0218909 0.11186 1114.01 
240 1 0.000410068 0.000331951 0.0429367 -0.046421 1120.16 
241 1 0.000795425 0.000640498 -0.00253114 0.064631 951.355 
242 1 0.000686426 0.000927706 -0.0466873 -0.029014 862.139 
243 1 0.000897084 0.000709394 -0.0142945 -0.0228803 1119.99 
244 1 0.000528777 0.000660519 0.014438 -0.0101606 1135.13 
245 1 0.00056575 0.000518614 0.0127924 0.067608 1027.66 
246 1 0.000881442 0.000479738 -0.0322037 0.0651498 1103.29 
247 1 0.000487186 0.000506261 0.00167147 0.00488454 948.677 
248 1 0.000821328 0.000334844 -0.0458102 -0.0248833 1084.08 
249 1 0.000984591 0.000448035 0.0386028 -0.0489182 979.893 
250 1 0.000888589 0.000442391 -0.091422 -0.106916 1088.93 
251 1 0.000988677 0.000743923 -0.0118918 0.128025 1112.28 
252 1 0.000741406 0.000604836 0.00381776 -0.0634549 1092.82 
253 1 0.000964973 0.000335293 0.0297267 0.00920173 924.249 
254 1 0.000870907 0.000287312 -0.0222506 0.00573753 992.875 
255 1 0.000596379 0.000791828 0.0162778 0.0350588 909.088 
256 1 0.000877652 0.0004922 0.0328477 -0.0256641 1103.37 
257 1 0.000499613 0.000798532 -0.0272783 -0.0214138 1105 
258 1 0.000233608 0.000520167 0.000531269 -0.0112191 917.781 
259 1 0.000191534 0.000523738 0.0186329 -0.00376527 1103.85 
260 1 0.000336257 0.000934932 0.0468833 0.0227879 1057.55 
261 1 0.000325871 0.000406025 -0.0333784 -0.0766838 939.654 
262 1 0.000583318 0.000498899 -0.0382787 -0.040153 1075.79 
263 1 0.000496855 0.000556462 0.0454876 -0.0349832 977.508 
264 1 0.000200511 0.000778537 -0.00386499 0.0129099 1044.42 
265 1 0.00012597 0.00047156 0.0540363 -1.43413e-05 1095.29 
266 1 0.000633071 0.000483375 0.0210107 0.0578116 977.589 
267 1 0.000787589 0.000674504 -0.0427978 0.0289905 1043.88 
268 1 0.000528656 0.00085798 -0.0508521 -0.0229886 1092.75 
269 1 0.000355131 0.000627262 -0.0649202 0.0200429 864.637 
270 1 0.000732498 0.000864058 -0.0296474 -0.0614708 1001.62 
271 1 0.000540749 0.000377742 0.00774852 0.0376701 1073.13 
272 1 0.000903772 0.000395541 0.00693614 0.00478414 1097.52 
273 1 0.00051233 0.000752675 0.0558746 -0.0644015 914.901 
274 1 0.000889597 0.000457807 0.030749 -0.0404515 1062.29 
275 1 0.000838078 0.000589055 0.00497937 0.0333879 1168.57 
276 1 0.000815192 0.000489384 -0.0370755 -0.0215304 1088.8 
277 1 0.00100181 0.000708847 0.0767124 0.0206181 935.008 
278 1 0.000538382 0.000689467 0.059698 0.0918705 1184.33 
279 1 0.000691604 0.000269731 -0.0204033 0.0464493 1110.12 
280 1 0.000364654 0.000431832 0.039832 -0.0221189 1077.24 
281 1 0.000504849 0.000517809 -0.0072628 0.0108517 1123.97 
282 1 0.000785048 0.000589486 -0.01013 0.0563236 983.437 
283 1 0.000850666 0.000662901 0.0568098 -0.000883116 1173.97 
284 1 0.00103423 0.00055606 0.0296408 0.133441 951.101 
285 1 0.000841555 0.000449105 -0.105563 0.034472 1098.86 
286 1 0.00114463 0.000972765 -0.00476847 -0.0444623 1027.75 
287 1 0.00101402 0.000643807 0.00243433 -0.0371011 1011.03 
288 1 0.0010192 0.000686645 0.0618577 0.019889 960.108 
289 1 0.000734745 0.000365747 -0.0412998 -0.029455 1145.45 
290 1 0.000272334 0.000503692 0.0760818 0.0693836 1109.15 
291 1 0.000338517 0.000520526 -0.0431894 0.0714177 884.08 
292 1 0.00022601 0.00056342 0.0254367 0.00248207 1000.48 
293 1 0.000284089 0.000626486 0.00519898 -0.0743711 1073.21 
294 1 0.000293497 0.000612474 0.0368062 -0.0149847 1017.56 
295 1 0.000427096 0.000578615 -0.00229136 -0.0195134 1065.41 
296 1 0.000505362 0.000917517 0.0343773 0.0293013 795.64 
297 1 0.000481285 0.000869384 0.017746 -0.00902507 1001.22 
298 1 0.000525424 0.000815737 0.0123999 0.0116688 978.307 
299 1 0.000524351 0.00066884 -0.0654103 -0.00378152 1200.7 
300 1 0.000474945 0.00070943 -0.0566974 -0.0419036 1038.47 
301 1 0.00046752 0.000360257 0.0238619 -0.140917 1095.33 
302 1 0.00083543 0.000667709 -0.0517285 0.116205 1211.99 
303 1 0.000212038 0.000654375 0.00364407 0.0253299 998.375 
304 1 0.000625173 0.000574369 0.0348427 0.0392517 1060.1 
305 1 0.000617024 0.000367931 0.0728247 0.023869 972.688 
306 1 0.000847817 0.000663002 0.032761 0.074448 1184.83 
307 1 0.000707814 0.000507955 -0.018317 -0.010769 1048.52 
308 1 0.000555245 0.000396916 0.0590767 -0.0049807 1008.71 
309 1 0.000523986 0.000886819 0.0571351 0.0313504 1011.88 
310 1 0.000618644 0.000300472 -0.00957033 -0.0743153 1068.26 
311 1 0.000747154 0.000558065 0.0253352 -0.0151929 1044.72 
312 1 0.000809671 0.00069263 -0.00641329 -0.02036 1094.21 
313 1 0.000940808 0.00056197 -0.0202537 0.01611 1025.45 
314 1 0.000818241 0.000837689 -0.00789657 0.0269668 1080.76 
315 1 0.000985193 0.000535586 -0.0820121 0.03644 1175.29 
316 1 0.00107369 0.000674045 -0.0353117 0.0547634 994.312 
317 1 0.000886204 0.000659998 0.0516454 -0.0138387 1059.36 
318 1 0.000970457 0.000637367 -0.0412745 0.0123933 1021.29 
319 1 0.0010436 0.000751281 -0.079657 -0.00671912 1105.11 
320 1 0.00110781 0.000719228 -0.0230083 -0.0406534 916.858 
321 1 0.000355071 0.000878047 0.0520054 0.0239026 902.229 
322 1 0.000455199 0.000617935 -0.0213436 0.0109254 1031.01 
323 1 9.67204e-05 0.000587007 0.0116689 -0.0736483 893.803 
324 1 0.0002736 0.000841018 0.0495036 0.0401636 1122.34 
325 1 0.000527493 0.000705986 -0.00388693 0.015545 1132.41 
326 1 0.000551097 0.000544283 0.0632845 -0.00227535 768.163 
327 1 0.000499777 0.000449846 0.0720679 -0.00609089 1065.88 
328 1 0.000279682 0.000608913 -0.0163701 0.0269391 1141.51 
329 1 0.000505831 0.000700415 -0.0154364 0.0626391 1109.25 
330 1 0.000653688 0.000507805 -0.0120147 0.0458773 1119.53 
331 1 0.000660974 0.00051993 0.00985746 0.0875138 1150.98 
332 1 0.000663937 0.000572629 0.0615242 0.0327988 1108.64 
333 1 0.000559838 0.000773223 -0.0404011 0.0415916 1073.99 
334 1 0.000439502 0.000480532 0.0203356 0.0450755 1080.4 
335 1 0.000742147 0.000803621 -0.0507632 -0.0103191 1071.7 
336 1 0.000401028 0.000423768 -0.0407323 -0.0395451 987.798 
337 1 0.000341102 0.000457357 0.0235333 0.00978756 1099.58 
338 1 0.000439331 0.000802167 0.0056231 -0.0554706 1128.58 
339 1 0.000755093 0.000646996 0.0282661 0.0193354 923.753 
340 1 0.00100545 0.000597883 0.0473635 -0.0138227 1041.42 
341 1 0.000680861 0.000622473 0.0245802 -0.0111521 906.295 
342 1 0.000695226 0.000811599 0.034815 0.0169768 1052.36 
343 1 0.000599459 0.000748896 0.0530727 0.0419761 1114.42 
344 1 0.00108322 0.000783624 0.00597281 0.0358073 1002.77 
345 1 0.000787674 0.000702227 -0.0469824 -0.0510388 1092.38 
346 1 0.000758604 0.000753852 0.00639017 0.00215635 1084.77 
347 1 0.00092884 0.000379002 0.0538025 -0.0275039 873.147 
348 1 0.000671021 0.000809908 0.0454534 -0.0288354 1216.47 
349 1 0.00093134 0.000938272 -0.0042428 -0.0209128 860.566 
350 1 0.000804903 0.000541685 -0.0348922 0.0666794 1006.23 
351 1 0.00104509 0.000761722 0.032043 0.00616766 1082.57 
352 1 0.00124548 0.000635112 0.0602725 0.0524343 1093.13 
353 1 7.40514e-05 0.000626509 0.05053 0.0686091 1076.35 
354 1 0.000267309 0.000601348 0.0353703 -0.0114934 1095.42 
355 1 0.000232931 0.00100848 0.0716339 0.00239425 1100.03 
356 1 0.000341259 0.000596409 -0.0194955 -0.0335036 927.349 
357 1 0.000213312 0.00054951 -0.0146178 -0.0512037 1094.01 
358 1 0.00047335 0.000376783 0.0737984 0.0430865 994.279 
359 1 0.000580626 0.000640246 0.0636995 -0.000708601 1060.97 
360 1 0.000810985 0.000884668 -0.0826545 -0.00549764 1085.08 
361 1 0.0005538 0.000494216 -0.0310181 -0.00318025 1021.47 
362 1 0.00044049 0.000654367 0.0434623 0.00326412 1127.32 
363 1 0.000484048 0.000665981 0.115823 0.0614762 1194.71 
364 1 0.000529043 0.000427569 -0.120095 -0.00503626 1032.1 
365 1 0.000596554 0.000539096 0.037235 0.00617792 1100.13 
366 1 0.000377417 0.000343545 0.0459895 -0.0380659 920.263 
367 1 0.000782072 0.000620197 -0.00257531 0.0092236 1044.72 
368 1 0.000812613 0.000438478 0.0897114 0.0900084 1104.98 
369 1 0.000727638 0.00067936 -0.047133 0.0708991 1149.38 
370 1 0.00054637 0.000776033 -0.0701186 -0.0044115 1025.45 
371 1 0.000680302 0.000357203 0.0151391 0.0283898 943.259 
372 1 0.000606661 0.000762731 0.0153464 0.038792 1089.93 
373 1 0.000845089 0.000620831 -0.0200155 -0.0479756 1057.02 
374 1 0.000953165 0.000613051 0.0287323 -0.0606543 995.379 
375 1 0.00056861 0.000918508 -0.057439 -0.00443457 1006.85 
376 1 0.00100239 0.000716643 0.00165336 -0.0749266 915.727 
377 1 0.000895002 0.000411185 0.0154908 0.082988 1198.05 
378 1 0.00070357 0.000726392 -0.0229902 0.000807746 1025.11 
379 1 0.00103533 0.000757285 0.00898052 -0.0647712 1077.78 
380 1 0.000823072 0.000763182 -0.00505457 -0.0328489 1059.23 
381 1 0.000836689 0.000525632 0.0149556 -0.0142602 933.157 
382 1 0.00105432 0.000704437 0.0176051 -0.00889578 1014.31 
383 1 0.000842773 0.000761828 0.0129916 -0.00761475 993.67 
384 1 0.000974006 0.00061054 -0.0220811 0.0547629 998.065 
385 1 0.000281601 0.000710768 -0.00742732 -0.0110694 995.029 
386 1 6.36671e-06 0.000544241 0.0418234 -0.126342 1003.61 
387 1 0.000283076 0.00094947 -0.00307791 0.0654831 1000.69 
388 1 0.000235028 0.000612167 -0.0339533 -0.0225164 1042.13 
389 1 0.000394704 0.000588569 0.0356212 -0.0515573 895.941 
390 1 0.000303305 0.000537907 -0.04978 -0.00752433 992.991 
391 1 0.00029988 0.000866123 -0.0251547 -0.0117411 831.152 
392 1 0.000613893 0.00104515 -0.00521692 -0.0296858 978.76 
393 1 0.000425376 0.00076607 0.0230967 -0.00138536 988.92 
394 1 0.000583491 0.000883541 0.0102167 -0.0284761 1045.21 
395 1 0.000495891 0.000667784 -0.08435 -0.0160597 1236.94 
396 1 0.000347738 0.000771818 -0.0437836 -0.0444812 1101.83 
397 1 0.000409659 0.000503749 0.0970179 0.00214485 1097.84 
398 1 0.000540053 0.000415119 0.0130602 0.0621663 1066.69 
399 1 0.0005713 0.000893399 -0.0206855 0.0265394 1117.97 
400 1 0.000424189 0.000734017 -0.0314232 0.060713 1160.66 
401 1 0.000755198 0.000532738 -0.0518248 -0.0108167 964.168 
402 1 0.000446344 0.000740036 0.0207073 -0.0958269 1063.07 
403 1 0.00056755 0.000685606 -0.00380508 -0.026333 1029.78 
404 1 0.000605616 0.000589271 -0.0369947 0.0197124 868.135 
405 1 0.000752192 0.000699102 -0.0119476 -0.0330479 1010.97 
406 1 0.000535557 0.000574655 -0.0817097 -0.00675652 965.586 
407 1 0.00040029 0.000837449 0.0453768 0.00483057 973.078 
408 1 0.000863792 0.000407848 -0.095481 -0.0335299 1254.35 
409 1 0.000875 0.000530214 -0.0076815 0.0489761 966.385 
410 1 0.000943939 0.000662345 -0.0348083 0.0121713 978.71 
411 1 0.00115789 0.000765658 -0.0104335 0.021217 1010.04 
412 1 0.00122797 0.000921198 -0.0350373 0.00713209 1029.4 
413 1 0.000909715 0.000616715 0.00153037 0.0549692 966.91 
414 1 0.00119445 0.000640483 -0.0355512 -0.0231216 880.022 
415 1 0.00118203 0.000478171 -0.0297305 -0.0842253 1039.51 
416 1 0.000965653 0.000563804 0.00780716 0.000273529 1171.39 
417 1 0.000193613 0.000583662 0.0526298 0.0836464 1019.9 
418 1 -5.7587e-05 0.000823603 -0.0330752 -0.0655915 1080.28 
419 1 0.000203043 0.000570644 -0.0300295 0.0440948 1077.35 
420 1 0.000378881 0.000522532 0.00672746 -0.00425925 941.986 
421 1 0.000403475 0.000645187 -0.0717214 -0.0463905 953.481 
422 1 0.000443095 0.000389899 -0.0287705 0.00644889 1046.43 
423 1 0.000246278 0.000694302 -0.00059839 -0.0836633 978.144 
424 1 0.000606243 0.000687497 0.000496649 -0.00425136 1076.24 
425 1 0.000452522 0.000934799 -0.017595 -0.0767232 923.318 
426 1 0.000673133 0.000671731 -0.0302761 -0.0123089 1023.35 
427 1 0.000368433 0.000784267 -0.015091 -0.00863291 1021.79 
428 1 0.000737808 0.000696593 0.00152933 0.0271616 1023.93 
429 1 0.00052403 0.000626112 0.0154761 -0.0560684 965.821 
430 1 0.000887633 0.000867142 -0.0557385 0.0255524 991.747 
431 1 0.000550164 0.000826512 -0.0122188 -0.0192469 1027.75 
432 1 0.000829875 0.000894007 -0.0858563 0.0190446 1127.6 
433 1 0.000943371 0.000426529 0.0062261 -0.0767167 929.402 
434 1 0.000651954 0.00078578 0.0964506 -0.0327866 1011.27 
435 1 0.000346199 0.000766901 -0.0202498 -0.00764411 1067.08 
436 1 0.00056937 0.0006783 0.0326956 -0.0484698 1050.04 
437 1 0.000913481 0.000723112 0.0366953 0.0605567 1050.9 
438 1 0.000770522 0.000835956 -0.0474559 0.0594982 933.902 
439 1 0.000803164 0.000660402 0.0126448 0.0170007 1052.9 
440 1 0.00106165 0.000817262 -0.0576556 0.0115073 1019.18 
441 1 0.00069933 0.0010409 -0.0115257 -0.0912086 1100.22 
442 1 0.000804074 0.000549737 0.0399472 -0.0123157 964.079 
443 1 0.000865984 0.000713658 -0.00973766 0.0532536 914.057 
444 1 0.00111336 0.000671834 0.0671854 0.0355936 1202.45 
445 1 0.000774739 0.000730508 0.0165885 0.0186074 1068.96 
446 1 0.00114545 0.000895207 0.0561648 -3.12589e-05 941.871 
447 1 0.00113833 0.00073599 -0.012862 -0.0303762 907.643 
448 1 0.00124907 0.000394003 -0.0476687 0.0609603 1038.77 
449 1 0.000646024 0.000393495 0.0563125 0.0875137 1038.46 
450 1 0.000346939 0.000723299 -0.0626736 -0.0366807 960.743 
451 1 0.000363326 0.000704965 0.00526942 0.0760749 1024.69 
452 1 0.00025799 0.00084705 0.00759508 0.0383556 1072.14 
453 1 0.000434862 0.000888544 -0.0532835 -0.00731224 998.591 
454 1 0.000265404 0.000955306 0.0596036 0.0475453 936.422 
455 1 0.000512178 0.000481275 -0.0440337 -0.0748559 852.746 
456 1 0.00030616 0.000773272 -0.000198415 -0.0349 1103.03 
457 1 0.000551109 0.000742194 -0.00137794 0.0581789 1010.36 
458 1 0.000439494 0.000416976 0.0526284 0.0359927 1024.62 
459 1 0.000322415 0.000642778 0.0388606 -0.000978293 1064.14 
460 1 0.000739532 0.00103792 0.00227445 -0.0113977 1113.3 
461 1 0.00036221 0.0005647 -0.0234846 -0.0426432 914.406 
462 1 0.000320198 0.000899123 0.0208517 0.105604 875.686 
463 1 0.000866627 0.00115929 -0.113069 -0.00867935 1205.61 
464 1 0.000665588 0.00105613 0.0168598 0.0245618 1197.67 
465 1 0.000706828 0.000963306 0.0189122 -0.042951 986.725 
466 1 0.000537879 0.000725164 0.0182206 -0.110191 1069.88 
467 1 0.000811282 0.00100351 -0.0161222 0.0551277 1176.55 
468 1 0.00100186 0.000743904 -0.0389292 -0.0822934 990.045 
469 1 0.000881099 0.000839449 0.0250677 0.0250001 982.053 
470 1 0.000689112 0.000678911 -0.0235017 0.000778756 1072.09 
471 1 0.000800232 0.000735175 -0.0474364 -0.0753405 1041.22 
472 1 0.000528868 0.000867609 0.030707 0.0211521 1104.99 
473 1 0.000833261 0.000813612 -0.0227963 0.0919021 1200.04 
474 1 0.000672623 0.000790993 0.0613979 -0.0383036 1199.86 
475 1 0.00100514 0.000880949 -0.0850274 0.0252513 1102.58 
476 1 0.000958424 0.000558118 -0.0012165 0.0348115 1194.8 
477 1 0.00108906 0.000976048 -0.0635107 -0.000952346 1003.35 
478 1 0.000976819 0.000777755 0.0316878 -0.0231167 1113.59 
479 1 0.0011504 0.000692942 -0.0497061 0.0577769 1136.98 
480 1 0.00102958 0.000869819 0.0236068 -0.0449515 1091.37 
481 1 0.000150351 0.000738765 -0.00548836 -0.00216574 1155.68 
482 1 0.000294773 0.000905 -0.0507894 0.0148991 946.051 
483 1 0.000385814 0.000508344 0.0472809 0.033169 1120.59 
484 1 0.000426845 0.000768012 0.0276254 0.0544582 981.28 
485 1 0.000395077 0.000950914 0.0215518 -0.00944558 1087.66 
486 1 0.00049457 0.000864644 0.0249375 0.0311059 1019.45 
487 1 0.000305773 0.000751183 -0.0130057 0.00117232 1054.23 
488 1 0.00053989 0.00062868 0.00931126 0.00448678 1019.65 
489 1 0.000337841 0.000927442 -0.0563888 0.00532009 1045.65 
490 1 0.000278815 0.000856857 0.0271228 -0.0624054 995.027 
491 1 0.000378764 0.000703465 -0.0628415 0.0742002 985.089 
492 1 0.000593106 0.000537116 0.0901769 0.0494423 1096.57 
493 1 0.000738742 0.000997106 -0.0189556 -0.0272498 977.803 
494 1 0.000644989 0.000679151 -0.0389182 0.0481034 1121.3 
495 1 0.000504863 0.000812326 -0.00206712 0.0123755 1053.37 
496 1 0.00106938 0.000992668 0.0568067 0.0817616 1067.98 
497 1 0.000694928 0.000722488 0.0339907 0.0434673 1100.75 
498 1 0.000857804 0.000724716 -0.0355785 -0.035101 861.573 
499 1 0.000472116 0.000719684 0.0712477 0.000595347 1056.8 
500 1 0.000489896 0.000737995 -0.0172559 0.0296679 966.096 
501 1 0.000443101 0.000578584 0.024125 -0.0680361 1105.86 
502 1 0.000812274 0.000696909 -0.0137296 -0.0956928 1048.19 