ITEM: TIMESTEP
97000
ITEM: NUMBER OF ATOMS
1024
ITEM: BOX BOUNDS pp pp pp
0 0.0008
0 0.0008
-1e-06 1e-06
ITEM: ATOMS id type xu yu vx vy c_rho_peratom 
1 2 0.000427477 0.000425457 -0.00255743 -0.030234 1066.98 
2 2 0.000423314 0.000429463 -0.0117151 -0.0738394 1066.69 
3 2 0.000412603 0.00042235 0.0977539 -0.0133158 1098.03 
4 2 0.000397832 0.000407242 0.00275721 0.0361476 1095.36 
5 2 0.000391313 0.000400183 -0.0223035 0.0676384 1065.75 
6 2 0.000403067 0.000381944 0.0551792 -0.0261123 1072.88 
7 2 0.000406436 0.000364856 0.0604948 0.0125776 974.667 
8 2 0.00039235 0.000360509 0.0355678 0.0670959 1008.95 
9 2 0.000384297 0.000353925 -0.0240445 0.0385216 980.75 
10 2 0.000371819 0.000349395 -0.0184183 0.0283931 936.093 
11 1 0.00119981 0.000703918 0.0261904 0.0460042 1182.77 
12 1 0.000784139 0.000468787 0.0574606 -0.0331083 946.577 
13 1 0.000807309 0.000420752 0.014479 0.0507869 991.631 
14 1 0.000901958 0.000186569 0.0638554 -0.0580201 1073.5 
15 1 0.000788789 0.000586564 0.0105746 0.0463886 1110.28 
16 1 0.000898615 0.000289193 -0.0428371 0.0173452 1068.05 
17 1 0.000778176 0.000300861 -0.0318692 0.0346231 1056.7 
18 1 0.00123914 0.000567896 -0.0941106 0.0161525 1167.91 
19 1 0.000745474 0.000682077 -1.05229e-05 -0.0196224 1131.98 
20 1 0.00103302 0.000835553 -0.0165243 0.0131341 902.512 
21 1 0.0011231 0.000153741 0.0139383 0.0474948 1098.9 
22 1 0.00126637 0.000607678 0.00677516 0.0773986 1028.73 
23 1 0.000978581 0.000126033 -0.0835039 -0.0216736 1155.83 
24 1 0.00124494 0.00026347 0.0226413 0.0462145 963.804 
25 1 0.00121547 8.62598e-05 -0.0221519 -0.00690314 1060.08 
26 1 0.000907975 0.000228388 0.068302 0.00978188 1150.83 
27 1 0.00112175 0.000210588 -0.0122494 -0.0589402 1029.46 
28 1 0.00113382 0.000314585 -0.0598337 0.0228337 1141.58 
29 1 0.00114177 0.000478616 0.0190429 -0.0307492 1090.85 
30 1 0.00111426 -7.20858e-06 0.0599027 -0.0756432 982.669 
31 1 0.000442663 0.000247795 0.0407959 -0.00975371 1053.84 
32 1 0.00119706 0.000283181 -0.0148137 -0.0465863 1090.94 
33 1 0.000376791 0.000182233 -0.0997616 -0.0114939 1026.89 
34 1 0.000228279 -3.29051e-05 -0.0346566 -0.0153831 1098.36 
35 1 0.000416484 7.55226e-05 0.00576432 0.0441531 1048.11 
36 1 0.000452415 0.000622546 -0.0196938 -0.0672556 1161.54 
37 1 0.000411211 0.000637723 -0.0363303 -0.0369275 1005.74 
38 1 0.000404842 0.000648384 0.042014 -0.0657941 1007.99 
39 1 0.000417227 0.000594097 0.0184989 -0.0147278 1019.27 
40 1 0.000586102 0.000401778 0.0500398 -0.0145617 994.558 
41 1 0.000555342 0.000255919 0.0316801 -0.0375506 1128.28 
42 1 0.000512841 0.000216358 0.0649689 -0.0139459 1031.78 
43 1 0.000673506 0.000691991 -0.00179093 -0.0883581 1079.49 
44 1 0.00074852 0.000168273 -0.0434124 -0.00525691 1047.34 
45 1 0.00108681 0.000421233 -0.0267438 -0.0292627 1001.69 
46 1 0.000794593 0.000385625 -0.0317755 0.0763629 1039.44 
47 1 0.000881494 0.000686921 -0.0557087 0.0641732 1033.34 
48 1 0.000709435 0.000409779 -0.0205423 0.00268986 1077.55 
49 1 0.000851924 0.000262321 0.00529055 0.0197605 1061.88 
50 1 0.00077289 0.000404131 -0.00315639 0.0302794 1074.12 
51 1 0.000547034 9.74461e-05 -0.0710524 -0.0250856 1157.14 
52 1 0.000806546 0.000189989 -0.060635 0.0401329 1027.74 
53 1 0.00104467 0.000404368 -0.0288969 -0.0526756 1066.4 
54 1 0.00111765 0.000397701 0.0561511 0.0737254 1104.25 
55 1 0.00101859 -0.000171332 0.0466004 0.0148837 1051.67 
56 1 0.000897249 0.000472851 -0.040558 -0.00827538 993.309 
57 1 0.00136616 0.000510421 0.0113217 -0.00573261 1029.14 
58 1 0.000798372 0.000346859 0.0364469 -0.0191761 997.657 
59 1 0.000947452 0.00025108 -0.0145334 -0.069867 1081.98 
60 1 0.00153149 0.000306489 0.00458533 0.0599042 981.873 
61 1 0.00154783 0.00075603 -0.0131911 -0.00739473 1123.59 
62 1 0.000945505 0.000170423 0.019068 0.0479431 1009.63 
63 1 0.00119153 0.000298012 0.0324144 -0.0298377 978.202 
64 1 0.000869375 0.000164566 0.00510384 0.0142123 1002.02 
65 1 0.000276594 0.000719117 0.00571337 0.0196452 1036.05 
66 1 0.000663137 0.000199329 -0.0693126 0.00585338 1029.08 
67 1 0.000619453 0.000514547 -0.0915038 -0.00887052 996.12 
68 1 0.000489274 0.000489605 -0.0142959 -0.0331369 1114.76 
69 1 -7.62286e-05 0.000493822 -0.035778 0.0129742 983.271 
70 1 0.000916506 0.000399152 -0.0352244 -0.00748625 1132.03 
71 1 0.000532456 0.000625005 0.0404259 -0.0202423 1015.47 
72 1 0.000737467 0.000247054 -0.00796742 -0.0504264 1084.57 
73 1 0.000364369 0.000580334 0.0264969 0.00996537 960.957 
74 1 0.000658482 0.000640239 -0.0129205 0.00125016 1073.38 
75 1 0.000648763 0.000746656 -0.0883757 0.0344222 1007.4 
76 1 0.000759852 0.000716968 -0.00168148 0.00295901 1225.69 
77 1 0.000859683 0.000391622 -0.0188947 -0.0155081 910.669 
78 1 0.000918906 0.000341203 0.0066352 -0.0302247 989.67 
79 1 0.000350681 0.000271855 0.0435231 -0.00994036 1166.18 
80 1 0.000890862 3.86067e-05 0.0323742 -0.00772405 1135.62 
81 1 0.000273442 6.50105e-05 -0.056215 -0.000753672 1002.3 
82 1 0.000838674 0.000453763 -0.0417408 -0.0262654 978.218 
83 1 0.000810771 0.000643152 -0.00923545 0.0365813 1105.56 
84 1 0.00122176 0.000318438 -0.0111399 -0.0252144 1096.91 
85 1 0.00126408 0.000219355 -0.0496172 0.0742421 1110.34 
86 1 0.000818808 0.000641959 0.0527285 0.0334851 1097.98 
87 1 0.00112147 0.000367862 0.0335069 0.014905 953.407 
88 1 0.00126466 0.000112868 -0.0509263 -0.00758467 1092.14 
89 1 0.00105726 0.000312353 0.00944332 -0.0146527 1033.59 
90 1 0.0010611 0.000195003 -0.00657424 0.0576829 995.859 
91 1 0.000913293 0.000208596 -0.0679123 0.0669973 1078.79 
92 1 0.000995589 0.000581694 -0.0172852 -0.00641528 1033.85 
93 1 0.000998141 0.000284121 0.00261474 0.00815933 1057.3 
94 1 0.000998389 0.000692772 0.031497 -0.0250077 1099.02 
95 1 0.00125388 0.000384904 -0.0100164 -0.0619153 1025.55 
96 1 0.0011287 0.000337166 0.0798749 -0.00954325 1097.58 
97 1 0.00036489 0.000844392 -0.0176881 -0.0181703 997.172 
98 1 0.000167326 0.00019499 0.0491214 -0.0196579 1048.44 
99 1 0.000285706 0.000345688 -0.0297233 -0.0399867 1120.22 
100 1 0.000503928 0.000614143 0.0131214 -0.00406095 854.546 
101 1 0.000481537 0.000461049 0.0920123 0.0252399 1126.25 
102 1 0.000651788 0.00047448 -0.0557871 -0.0178787 1104.05 
103 1 0.000911549 0.000871696 0.088544 -0.00720235 996.032 
104 1 0.00104055 0.000342748 -0.0331737 0.0504964 929.466 
105 1 0.000332647 0.000590148 0.0205976 0.0371031 1043.17 
106 1 0.000440672 0.00012579 0.0408202 0.0239798 922.19 
107 1 0.000663038 0.000462644 0.0370494 -0.0331281 1098.74 
108 1 0.000722233 0.00036893 0.0319871 -0.00159115 1139.59 
109 1 0.000469286 0.000689248 0.0198762 0.00715827 892.653 
110 1 0.000751934 0.000406191 0.0129985 0.0186307 1054.47 
111 1 0.000724587 0.000445931 -0.027932 -0.00451793 991.051 
112 1 0.000706407 0.000500266 -0.0442099 -0.00534494 1083.05 
113 1 0.000666407 0.000667376 -0.00692596 0.00119668 1139.25 
114 1 0.000922724 0.000576922 0.0089443 -0.0920502 864.7 
115 1 0.000877279 0.000774011 0.00569886 -0.0103783 1047.05 
116 1 0.000907969 0.0003618 -0.0104028 0.107197 1068.85 
117 1 0.00148548 0.00015806 -0.0183671 0.0572912 1056.86 
118 1 0.00115955 0.000330244 0.0340013 0.0337474 1009.26 
119 1 0.00127165 0.000491376 -0.0508722 -0.0279051 1025.28 
120 1 0.00151404 0.000874961 0.0506702 -0.00063205 974.903 
121 1 0.00119466 0.000250746 0.0305914 -0.0520979 1136.22 
122 1 0.00112483 0.000585524 -0.122729 -0.0400271 1032.56 
123 1 0.00116489 0.000713035 0.0515506 -0.0470335 1116.55 
124 1 0.00073111 0.000528188 -0.0255547 -0.0029766 917.743 
125 1 0.00089145 0.000324287 -0.0695769 -0.074127 1024.24 
126 1 0.00138867 0.00053963 -0.00654197 -0.0433956 947.239 
127 1 0.000859317 0.000210777 0.0721973 -0.0497129 1082.7 
128 1 0.00088208 0.000536833 -0.0446162 0.0758431 1013.88 
129 1 0.000232221 -0.000114322 0.0111905 0.028196 1096.95 
130 1 4.83217e-05 0.00028879 -0.0330979 -0.0199677 1113.43 
131 1 0.000432187 0.000393678 -0.00367838 0.0485973 1113.73 
132 1 0.00073846 0.000520032 0.0272497 -0.0305483 870.8 
133 1 0.000634259 7.75429e-05 -0.0134599 -0.0825865 1106.55 
134 1 0.000477344 0.000667717 0.00255521 0.00843986 1060.68 
135 1 0.000423242 0.000269557 -0.0360708 0.0228821 1051.51 
136 1 0.000271744 0.000571618 -0.0119566 0.0631836 1126.58 
137 1 0.0006058 0.000330468 -0.115977 -0.0538142 1011.58 
138 1 0.000448709 0.000736462 0.0499129 -0.0135086 921.453 
139 1 0.000835607 0.000714433 -0.0272104 -0.0459959 1099.74 
140 1 0.000771888 0.000599111 0.000694942 -0.0140138 1038.37 
141 1 0.000698956 0.000542565 -0.0663674 0.0911768 1082.78 
142 1 0.000545641 0.000316807 0.0321086 -0.0582839 1104.93 
143 1 0.000777715 0.000859786 0.0317289 0.0116326 1130.6 
144 1 0.000684977 0.000385 -0.0841012 0.02392 1005.97 
145 1 0.000670232 0.000576703 0.00412931 -0.0366486 971.192 
146 1 0.000960626 0.000844595 0.0128615 0.0176961 1135.71 
147 1 0.000963811 0.000542959 0.0685419 -0.0244671 1083.78 
148 1 0.00097603 0.000361215 0.0609966 -0.0313535 1092.47 
149 1 0.00102786 0.000697594 -0.00288863 0.0459883 1018.14 
150 1 0.000990251 6.36271e-05 0.0141114 0.00345039 1027.99 
151 1 0.00131131 0.00100325 0.0343017 -0.0669128 988.98 
152 1 0.000793546 6.41179e-05 -0.00870693 0.0193297 1123.78 
153 1 0.0011831 0.000606524 -0.0924678 -0.0429522 1119.08 
154 1 0.00107441 0.000294302 0.00264881 0.0304282 1045.64 
155 1 0.000889722 0.000645082 -0.0748745 -0.0973497 1028.51 
156 1 0.00118194 0.000698887 -0.0319265 -0.0250882 1174.11 
157 1 0.000969937 0.000799735 0.0264961 0.0909858 933.13 
158 1 0.00091089 0.000227336 -0.00856684 0.0561177 1149.74 
159 1 0.00160123 0.000493117 -0.0334105 0.0133909 1068.2 
160 1 0.000813159 0.000275529 -0.0392163 0.0402933 1160.65 
161 1 0.000184335 0.000396903 -0.037075 0.0227465 994.13 
162 1 0.000496863 0.000796325 0.0659349 -0.0251082 1076.96 
163 1 0.000455501 0.000778888 -0.0249051 0.00337268 1235.03 
164 1 0.000267184 0.000335633 0.0501263 -0.000964698 1070.54 
165 1 0.000726318 0.000110926 0.0288519 -0.0640363 1023.58 
166 1 0.000163295 0.00073427 0.0317741 -0.0618984 1134.6 
167 1 0.000629526 0.000497101 -0.0151217 -0.020101 1066.54 
168 1 0.000664833 0.000499856 -0.0803395 -0.0192698 1079.61 
169 1 0.000535439 0.000650116 0.0370078 0.0534539 940.27 
170 1 0.000608451 0.000690599 -0.0588591 -0.000521937 1020.15 
171 1 0.000298223 0.000510693 0.111984 -0.0138513 1049.18 
172 1 0.00046787 0.000394887 0.023103 -0.0113696 969.911 
173 1 0.000712762 0.000416547 0.0651077 -0.032897 1048.69 
174 1 0.00107395 0.000710845 -0.0137027 -0.0923633 1059.97 
175 1 0.00067126 0.000424054 0.00852976 0.0157667 1147.27 
176 1 0.00047369 0.00073537 -0.0137403 -0.000501807 1036.07 
177 1 0.00105776 0.000591461 0.0244685 0.015277 1051.94 
178 1 0.00125307 0.000320019 0.106886 0.00369559 1164.23 
179 1 0.00118223 0.000483352 -0.0247843 0.0333735 1051.49 
180 1 0.000875779 0.000871642 0.042988 -0.0159461 1036.68 
181 1 0.000972734 0.000202771 0.0376218 0.0447083 1081.4 
182 1 0.000895428 0.000291029 -0.067909 0.0717653 1068.15 
183 1 0.000943324 0.000741449 -0.00532234 0.089636 1081.94 
184 1 0.00106521 0.000565752 0.0363091 -0.0754555 1129.08 
185 1 0.000934474 0.000438635 0.00705767 0.0200153 1153.99 
186 1 0.00113004 0.000514846 0.00924435 -0.00918894 1062.79 
187 1 0.000815298 0.000414305 0.0198872 0.00180747 1038.07 
188 1 0.00132178 0.00080554 0.00771735 -0.0117104 1059.57 
189 1 0.00124006 0.000502495 0.00401118 0.00840026 952.289 
190 1 0.000772699 0.000232415 0.000630657 -0.00612972 941.779 
191 1 0.00110567 0.000359199 -0.033756 0.0915009 1048.2 
192 1 0.000771127 0.000621372 0.0148719 0.0084057 1012.5 
193 1 4.64481e-06 0.00093904 0.0563967 -0.0186326 681.38 
194 1 9.70872e-06 0.000558625 -0.0273954 0.0586084 1061 
195 1 0.000724897 0.000245758 -0.0160566 -0.0752379 1067.3 
196 1 0.000354302 0.000526131 -0.00482718 -0.0664901 883.31 
197 1 0.000335003 0.000914416 0.0335719 0.0104565 1102.83 
198 1 0.000430607 0.000857888 -0.0501629 0.0142563 975.921 
199 1 0.000135215 0.000634457 0.0260672 0.00752324 1090.67 
200 1 0.000327534 8.95631e-05 -0.00109669 0.0264387 1089.84 
201 1 0.000536869 0.000464123 -0.000524812 -0.0476984 1004.46 
202 1 0.000689337 0.000414291 0.0377902 -0.0976582 1077.62 
203 1 0.000417462 0.000952569 -0.0507069 -0.0499226 1062.74 
204 1 0.000919655 0.000621869 0.101764 -0.0152548 958.787 
205 1 0.000931207 0.000476385 0.00130581 0.00692822 1072.18 
206 1 0.000760634 0.000737886 0.0649045 0.0124231 1216.68 
207 1 0.000891188 0.000564133 0.0134297 -0.0476022 1029.3 
208 1 0.00100904 0.000800083 -0.0345312 -0.00466393 924.266 
209 1 0.000680097 0.000226373 -0.00764704 -0.042389 1089.04 
210 1 0.000902347 0.000358328 -0.0133338 0.0492585 1041.78 
211 1 0.00114786 0.000334524 -0.0216259 0.0199723 1060.16 
212 1 0.000999288 0.000976455 0.0296677 -0.101721 944.822 
213 1 0.00112502 0.000222564 0.0190235 0.0647028 1011.78 
214 1 0.00106347 0.000231093 0.0372538 0.0162762 925.899 
215 1 0.00128507 0.000539765 0.0064765 -0.0174766 1008.63 
216 1 0.00116237 0.000476546 0.0534403 0.00774817 1134.21 
217 1 0.000768136 0.0005398 0.00119374 -0.0303307 1105.04 
218 1 0.0011529 7.76669e-05 0.0194029 0.0522745 1070.92 
219 1 0.00109634 0.000971509 -0.0703454 0.014131 1000.84 
220 1 0.00130488 0.000509716 0.0211173 -0.0477069 1032.48 
221 1 0.00130079 0.000858004 -0.00389725 0.075369 1244.74 
222 1 0.00127905 0.000644092 -0.0514885 -0.00251041 1051.93 
223 1 0.000803924 0.00089147 0.00164971 0.0856713 1106.85 
224 1 0.00138885 0.000954837 -0.0106826 0.0206325 1101.35 
225 1 0.000503804 0.000542721 0.0704265 -0.0408331 1007.08 
226 1 0.000611864 0.000291094 -0.0472471 0.038301 1100.39 
227 1 0.000147145 0.000271103 -0.0414035 -0.0605958 1166.63 
228 1 0.000484281 0.000497684 -0.0317631 -0.0179239 1065.68 
229 1 0.000565327 0.000453924 0.0842247 0.0773684 1056.5 
230 1 0.00028678 0.000579903 0.0515079 -0.00886634 1116.35 
231 1 0.000572338 0.000637908 0.000844832 -0.121608 968.004 
232 1 0.000595719 0.000576094 -0.0147831 -0.0151565 1107.2 
233 1 0.000654425 0.000612913 -0.0274825 0.0676165 888.414 
234 1 0.000726495 0.0009097 0.155547 0.128457 1014.35 
235 1 0.000655428 0.000828026 0.0627062 0.142354 1051.95 
236 1 0.000639534 0.00102451 0.00492933 0.0607613 979.064 
237 1 0.000365196 0.000403498 0.03191 -0.00359614 925.764 
238 1 0.000531918 0.000413291 0.0162112 0.0161524 1036.71 
239 1 0.000961657 0.000298311 -0.00783702 0.0219229 1064.69 
240 1 0.00035345 0.000397718 0.0604469 0.0223438 914.946 
241 1 0.000924015 0.000335349 0.0505991 -0.0419101 935.442 
242 1 0.000936529 0.000900715 -0.058022 -0.0826977 1054.58 
243 1 0.00109106 0.000612909 -0.00878923 0.0616847 1085.36 
244 1 0.000590052 0.000555812 -0.0380337 -0.0142808 1017.54 
245 1 0.000430859 0.000829749 0.0416588 0.00687573 1035.74 
246 1 0.000878378 0.000476199 -0.00243552 0.0147395 1105.42 
247 1 0.000630983 0.000552392 -0.0144731 0.0373898 966.176 
248 1 0.00101304 0.000123161 0.0199515 -0.0638186 1002.01 
249 1 0.0011676 0.000430126 -0.0543683 0.0183454 954.507 
250 1 0.000982754 0.00040631 -0.0330378 -0.120781 938.002 
251 1 0.00104588 0.000463877 -0.00614052 -0.00836373 1055.17 
252 1 0.000856019 0.000446943 0.0184754 -0.0704109 1040.31 
253 1 0.000894506 0.000128579 0.00866504 0.0385935 1136.78 
254 1 0.00108635 0.000258544 0.0244565 -0.0645984 1014.79 
255 1 0.000628947 0.000631711 -0.0836084 -0.0389872 1004.78 
256 1 0.000942539 0.000419285 -0.00905682 0.0692517 1055.68 
257 1 0.000762945 0.000636155 0.0620896 -0.0262689 1016.04 
258 1 0.000219031 0.000502944 0.00539163 0.065333 829.774 
259 1 0.00017908 0.000451912 -0.0242821 0.06166 878.619 
260 1 0.000478167 0.00111371 0.011733 -0.0252193 1111.46 
261 1 0.000275235 0.00039733 -0.0221568 0.0451786 828.675 
262 1 0.000797313 0.000735293 -0.0464284 0.0145067 1002.66 
263 1 0.000533872 0.000328996 0.0944972 0.0579518 1158.62 
264 1 0.000517218 0.000890406 -0.0587563 -0.0124546 1115.17 
265 1 4.9647e-05 0.000287935 0.0525412 0.0180893 1110.29 
266 1 0.000575768 0.000670939 0.0143802 -0.0233079 1054.01 
267 1 0.00125453 0.000621928 0.00158383 -0.000279922 1155.94 
268 1 0.000552408 0.00105159 0.0342181 -0.00303075 1138.24 
269 1 0.000258079 0.000546041 -0.03171 -0.0200708 1107.91 
270 1 0.000824008 0.000582138 -0.0094337 -0.0475068 975.094 
271 1 0.000711249 0.000449476 0.121543 -0.00347064 1005.2 
272 1 0.00113932 0.000447623 -0.0844987 0.0029105 1046.96 
273 1 0.00082669 0.00100436 -0.040092 0.000298817 1091.49 
274 1 0.000983018 0.000380309 0.012712 -0.0222308 1072.05 
275 1 0.00093201 0.000466006 -0.00420327 -0.0301414 1149.41 
276 1 0.000926308 0.000373732 -0.114419 0.00981499 1038.68 
277 1 0.00103874 0.000648272 -0.0340704 -0.0692394 1017.73 
278 1 0.000626465 0.000474751 0.0544359 -0.0303762 1066.78 
279 1 0.000770612 0.000321114 -0.0316497 -0.102037 1034.91 
280 1 0.000511399 0.000364951 0.0705118 -0.0178855 922.025 
281 1 0.000538892 0.000660048 0.0767842 0.0720376 932.974 
282 1 0.00101451 0.000598168 0.0240356 -0.0864124 989.821 
283 1 0.000994578 0.000648768 0.0244895 0.0143608 1048.01 
284 1 0.0011354 0.000388897 -0.00438692 -0.0184034 958.941 
285 1 0.00119018 0.000596391 -0.054213 -0.00736314 1085.15 
286 1 0.00116786 0.000777764 -0.00336899 0.0307132 944.985 
287 1 0.00132307 0.00053637 -0.0693813 -0.0295278 932.576 
288 1 0.00103519 0.000550771 0.0115548 -0.00841375 1122.83 
289 1 0.000934126 0.000268663 -0.0284774 0.0282078 1176.72 
290 1 0.000313093 0.000627794 -0.0172736 0.028298 1039.91 
291 1 0.000560141 0.000520112 0.0316903 0.114727 955.992 
292 1 0.000269206 0.00046623 0.0246584 0.0546957 1001.45 
293 1 0.000403718 0.000823583 0.054255 -0.0395018 1126.96 
294 1 0.000580396 0.000691282 0.000699527 -0.0101482 1091.13 
295 1 0.000452218 0.000551623 -0.0531205 -0.0109688 1150.28 
296 1 0.000612642 0.00115174 -0.0296615 0.0329629 1049.6 
297 1 0.000943884 0.000892867 0.013847 -8.65768e-05 1073.8 
298 1 0.000583866 0.000985442 -0.00829406 0.00849898 1015.53 
299 1 0.000393931 0.000892772 0.00557508 0.00593743 1129.76 
300 1 0.000883704 0.000629204 0.021732 -0.0343843 936.51 
301 1 0.000404293 0.000452547 0.00892326 0.00312871 959.182 
302 1 0.00104334 0.000486718 0.0432374 0.0155228 942.514 
303 1 0.000377315 0.000679209 -0.0574462 0.10232 1080.36 
304 1 0.000715661 0.000717948 -0.0747294 -0.0370935 758.334 
305 1 0.000797128 0.000602151 0.0560291 -0.0525895 1153.62 
306 1 0.00113069 0.000525733 0.0408305 -0.0365489 1006.07 
307 1 0.000730865 0.000612365 0.0670389 -0.0269337 1152.62 
308 1 0.000589991 0.000443014 0.0499246 -0.0215611 976.626 
309 1 0.000428822 0.00097887 0.000601133 0.0094796 1028.76 
310 1 0.000833894 8.22064e-05 -0.00717761 0.0226817 1053.81 
311 1 0.000761233 0.000371096 -0.0153153 -0.0858981 1044.16 
312 1 0.00101657 0.000305807 -0.0246944 -0.0707618 945.397 
313 1 0.000985301 0.00032764 -0.0360298 -0.0375824 1021.59 
314 1 0.000860137 0.000686402 -0.0477861 0.00784842 1178.34 
315 1 0.00123555 0.000485464 -0.0449656 -0.0386375 950.732 
316 1 0.00117883 0.000656708 -0.011763 0.0441797 1079.83 
317 1 0.000877011 0.000467546 -0.0161136 -0.0311192 1130.85 
318 1 0.00143449 0.000424309 0.0846471 0.0275733 1025.28 
319 1 0.00111714 0.000684143 -0.036354 -0.0705738 949.456 
320 1 0.00122424 0.00063308 -3.86599e-05 0.00453443 1045.74 
321 1 0.00047882 0.00105359 0.0184131 -0.0585608 1034.63 
322 1 0.000514717 0.000698112 0.0299711 0.00609979 1125.88 
323 1 0.000296288 0.000595426 0.0312585 -0.0669244 1135.44 
324 1 0.000531505 0.00080789 -0.0100579 0.0402348 993.777 
325 1 0.000562045 0.000688033 -0.0190893 0.0495899 983.69 
326 1 0.00064423 0.000436231 0.0700731 -0.0853634 1106.94 
327 1 0.000438788 0.000583909 -0.12164 -0.0324659 1126.43 
328 1 0.000423796 0.000796599 -0.034948 -0.0245104 1133.88 
329 1 0.000720376 0.000659841 0.0632903 -0.0324618 1075.45 
330 1 0.00094333 0.000577096 0.0429858 -0.0840716 872.661 
331 1 0.000638444 0.000710212 0.0527937 -0.0228169 1097.2 
332 1 0.000985487 0.000591668 -0.0831816 -0.0327528 1126.38 
333 1 0.000842916 0.000884116 -0.0307478 0.0270742 1084.27 
334 1 0.000715074 0.000472824 0.0255953 -0.015015 1093.34 
335 1 0.0010457 0.000522733 -0.078954 0.0406655 1012.19 
336 1 0.000599066 0.000406101 -0.0520892 0.0129319 1022.47 
337 1 0.000389316 0.00055195 0.0566989 0.0477999 964.72 
338 1 0.000852493 0.000664296 0.0210002 -0.00335715 1106.02 
339 1 0.000940821 0.000473235 0.0320698 -0.0619935 1145.14 
340 1 0.00129098 0.000855338 -0.0170617 -0.0468425 1212.82 
341 1 0.00096494 0.000667898 0.0444998 -0.000309059 956.499 
342 1 0.000674938 0.000447368 0.0402387 0.0153559 1024.87 
343 1 0.000720603 0.000611094 -0.0485354 -0.0406431 1169.13 
344 1 0.00129586 0.000708005 0.0170506 0.0109018 1042.3 
345 1 0.000854828 0.00055213 -0.0131579 0.0991117 979.644 
346 1 0.000991966 0.000486573 0.0370118 -0.0169741 900.246 
347 1 0.00126468 0.000540481 -0.119633 0.0857632 1045.39 
348 1 0.000741816 0.000655564 0.0129151 0.0606573 1176.92 
349 1 0.00106223 0.000607242 0.00627812 0.0881444 962.808 
350 1 0.00114103 0.000793901 -0.012964 0.0734314 1013.67 
351 1 0.000997293 0.000435043 0.107224 0.0249203 1003.37 
352 1 0.0014008 0.00081297 -0.044676 -0.0686519 1134.32 
353 1 -3.39842e-05 0.000314359 0.0274567 0.0351384 1010.16 
354 1 0.000326477 0.000631343 -0.0183875 -0.0809782 993.102 
355 1 0.000274583 0.00107707 -0.0470414 0.0356843 1106.34 
356 1 0.000581737 0.000587123 -0.0343038 0.0375915 1118.44 
357 1 0.000371543 0.000625483 -0.0690392 0.019943 1109.06 
358 1 0.000588988 0.000374485 0.0277352 -0.0275892 1007.94 
359 1 0.000620979 0.000572114 0.0331044 -0.00409884 1007.17 
360 1 0.000863326 0.00084757 -0.0796808 0.0550411 1002.34 
361 1 0.000731809 0.000395821 -0.0305038 0.00449236 1140.13 
362 1 0.000432327 0.000721697 -0.0213824 -0.0220335 984.877 
363 1 0.00042101 0.000752264 0.0550345 0.0306789 1065.01 
364 1 0.000546624 0.000594401 0.0453857 -0.032068 1151.61 
365 1 0.000639345 0.000644552 -0.0146475 0.0330018 1061.58 
366 1 0.000395647 0.000121349 0.0498089 0.0139457 1071.05 
367 1 0.000675809 0.000654562 -2.14977e-05 0.0416882 1029.48 
368 1 0.000682255 0.000489187 0.0430901 -0.0359147 1078.79 
369 1 0.00104653 0.000946749 0.0354566 -0.0779654 1182.02 
370 1 0.000753815 0.000786988 -0.0399542 -0.0290441 989.842 
371 1 0.000669143 0.000297209 0.0088978 0.0234054 1064.24 
372 1 0.000814411 0.000763736 0.0293705 0.0308927 969.201 
373 1 0.000929493 0.00027706 3.34915e-05 0.0538283 1173.06 
374 1 0.000975805 0.000704178 0.0026623 0.00512262 1073.27 
375 1 0.000773576 0.000904176 0.00449347 -0.061154 989.498 
376 1 0.00102612 0.000617164 -0.0377148 -0.0102525 971.989 
377 1 0.00085056 0.000355372 -0.0644009 -0.0670072 818.915 
378 1 0.000924503 0.000679737 0.0578177 0.0060497 1163.35 
379 1 0.00100884 0.000628639 0.0319934 -0.0926918 1095.66 
380 1 0.00106079 0.000515064 -0.0252579 -0.0127182 993.459 
381 1 0.000856235 0.000308062 0.0859754 0.00935448 1068.29 
382 1 0.00117003 0.00065075 0.0101674 0.0865323 1057.94 
383 1 0.000774651 0.000778066 0.0476521 -0.0144198 983.828 
384 1 0.00107571 0.000696608 0.0678989 0.0291566 1077.55 
385 1 0.00014523 0.000774746 0.0936975 -0.065681 1121.22 
386 1 8.48784e-05 0.000406483 -0.0259741 -0.00966761 1000.73 
387 1 0.000250958 0.000895243 -0.0458208 -0.0520421 1078.11 
388 1 0.000495269 0.00076256 0.0618291 0.0109959 1122.67 
389 1 0.000462991 0.000663518 -0.0334989 0.0441639 1085.03 
390 1 0.000273776 0.000500886 -0.0600393 0.000179254 970.865 
391 1 0.000506237 0.000910662 -0.032802 -0.0588383 1139.4 
392 1 0.000656337 0.00120587 -0.0263174 0.0016154 1207.52 
393 1 0.00067835 0.001007 -0.00759189 0.038403 1086.8 
394 1 0.000618703 0.00106616 -0.000575397 0.0656815 1089.27 
395 1 0.000506772 0.000679175 -0.0357436 0.0266666 1113.14 
396 1 0.000698969 0.00060031 0.00655832 -0.0386789 1152.25 
397 1 0.000349782 0.000445703 0.0128075 0.0411343 1088.51 
398 1 0.000783403 0.000492411 0.0278057 -0.0470358 1019.54 
399 1 0.000523053 0.000980789 -0.0253039 0.0265445 1053.16 
400 1 0.000826138 0.000807995 0.0448053 -0.00435522 742.806 
401 1 0.000795006 0.000530079 0.0701605 0.00683486 1108.78 
402 1 0.000832163 0.000504239 0.0375753 -0.003412 901.782 
403 1 0.000601007 0.000628034 -0.0394884 0.0352141 973.819 
404 1 0.000727735 0.000557162 0.0315822 -0.0372485 830.836 
405 1 0.00095932 0.000520613 0.00999927 0.0462095 1223.31 
406 1 0.000556971 0.000440186 0.0668155 -0.0769219 976.385 
407 1 0.00102552 0.000544183 0.00400155 -0.014643 1009.44 
408 1 0.00110675 0.000471569 0.0314451 -0.0907949 874.1 
409 1 0.000880125 0.000376416 0.0407415 -0.0516376 912.597 
410 1 0.000890392 0.00060012 0.0326225 -0.0250109 919.289 
411 1 0.00137484 0.000631728 0.00864264 -0.100325 980.206 
412 1 0.00138006 0.000870105 -0.0343171 0.0187622 1132.34 
413 1 0.00120261 0.000544031 -0.00117655 -0.0146553 1032.18 
414 1 0.00148107 0.000515654 -0.0801784 0.0890224 1114.2 
415 1 0.00130664 0.000459819 0.0482936 0.0563207 1052.98 
416 1 0.00108507 0.000646759 -0.0227347 0.0450279 997.9 
417 1 0.00044241 0.000520884 -0.0155642 0.0313486 1005.05 
418 1 6.7708e-05 0.000933015 0.0939848 -0.0565795 1094.18 
419 1 0.000116011 0.000448882 0.00149332 -0.0335417 1111.54 
420 1 0.000491718 0.000742172 -0.0325684 -0.00675561 1160.58 
421 1 0.000521834 0.000694724 -0.0349169 -0.0492464 1091 
422 1 0.000824489 0.000676625 -0.0360161 -0.0571102 1136.62 
423 1 0.000412666 0.000762681 0.036468 0.0197937 1045.25 
424 1 0.00083633 0.000546784 0.0287563 0.00824209 967.509 
425 1 0.000665014 0.000892288 -0.0162854 -0.0133025 1055.24 
426 1 0.000849911 0.000608364 -0.0535512 0.00820693 977.148 
427 1 0.000462741 0.000934211 0.0139057 0.0235974 1113.48 
428 1 0.000910417 0.000574774 -0.0129913 0.0401673 928.936 
429 1 0.000626478 0.000964881 -0.0684115 -0.0728995 1072.37 
430 1 0.00108348 0.00103144 -0.0461105 -0.0460883 1003.26 
431 1 0.000912003 0.000806193 -0.00393577 0.0490833 893.679 
432 1 0.000914047 0.000794969 -0.0546886 -0.0138245 904.501 
433 1 0.00134404 0.000578095 -0.0350102 0.0217581 1108.55 
434 1 0.000973081 0.000714814 -0.0066564 0.0284139 1104.03 
435 1 0.000486987 0.000820616 -0.0290207 -0.0481609 1056.16 
436 1 0.000798645 0.000754372 0.019384 0.05601 1065.36 
437 1 0.000679132 0.000569653 0.0419243 0.0439989 1072.61 
438 1 0.000911483 0.000666428 -0.00625565 0.00341288 1220.1 
439 1 0.000896872 0.00052178 0.03555 0.00976203 819.169 
440 1 0.00118199 0.000797186 -0.0162047 -0.000527605 1034.5 
441 1 0.000799142 0.000853114 0.0317978 -0.0200173 1021.11 
442 1 0.000880903 0.000549183 -0.00617298 -0.0855206 1049.13 
443 1 0.00111178 0.000495723 0.0653431 -0.0188655 1046.47 
444 1 0.00140844 0.000488449 0.0382864 0.0171553 1159.75 
445 1 0.00104593 0.000793836 -0.00976469 0.0132108 882.782 
446 1 0.00141817 0.00071609 -0.0307434 0.0353084 1021.77 
447 1 0.00109294 0.000669724 0.0237124 -0.0274929 1062.43 
448 1 0.00138363 0.00033196 -0.0688596 0.0247802 925.652 
449 1 0.000671532 0.000539127 -0.0196288 -0.0172515 1038.92 
450 1 0.000568844 0.000802158 -0.0468741 -0.0423914 1009.34 
451 1 0.000684383 0.000606961 -0.0265931 0.0610411 1028.17 
452 1 0.000392766 0.000737075 -0.039869 -0.0463367 1062.06 
453 1 0.000499991 0.000949661 -0.0863908 -0.00467363 1154.25 
454 1 0.000632324 0.000787166 -0.0433781 0.0264813 1147.94 
455 1 0.000420344 0.000694357 0.00896824 0.0230929 1125.44 
456 1 0.000652585 0.000719303 -0.0442469 -0.0469899 1091.16 
457 1 0.000878176 0.000814412 -0.00543147 0.0454979 1086.98 
458 1 0.000600691 0.000442699 0.0411062 0.0597089 926.21 
459 1 0.000332902 0.000553884 -0.0112858 0.0103479 836.166 
460 1 0.000796938 0.00109386 -0.0426119 -0.0081521 1092.8 
461 1 0.00045888 0.000444435 -0.0169871 0.0436725 911.515 
462 1 0.000432943 0.000788611 -0.0415203 -0.00302198 1180.56 
463 1 0.000954871 0.00129422 0.0219154 -0.0312008 1157.25 
464 1 0.000748468 0.00115019 0.0720095 -0.0344942 1103.07 
465 1 0.00101272 0.000752533 0.011092 -0.0182586 1035.3 
466 1 0.000821952 0.000974605 -0.0453806 -0.0327363 1054.46 
467 1 0.00104933 0.00106198 -0.0470549 -0.0569956 997.051 
468 1 0.000941462 0.000843284 -0.00959459 0.00274158 1081.08 
469 1 0.00106227 0.000894254 0.0571356 0.0382498 1067.72 
470 1 0.00072213 0.000644315 0.0203155 0.00995129 1114.19 
471 1 0.00124982 0.000774298 -0.102443 0.0145518 1247.58 
472 1 0.000609167 0.00104838 0.009954 0.0754444 1166.09 
473 1 0.000832458 0.000798452 -0.0129915 0.00681358 864.359 
474 1 0.000864067 0.000695046 -0.0409484 0.0119457 1152.38 
475 1 0.00115865 0.000991013 0.0760083 -0.0469439 952.342 
476 1 0.00122687 0.00067322 0.0596297 -0.0350509 1042.97 
477 1 0.0013188 0.00111404 -0.0451041 0.0046834 994.925 
478 1 0.00103731 0.000736887 -0.0297897 -0.00998397 998.191 
479 1 0.00112774 0.000720118 0.0267985 0.082772 1011.31 
480 1 0.00110397 0.000746044 -0.0550107 0.000943687 1083.1 
481 1 0.000290494 0.000756839 0.0286903 -0.0269903 1011.88 
482 1 0.000463945 0.000902146 0.017233 0.0180641 1039.45 
483 1 0.000277244 0.000442815 -0.0519377 0.0443114 1020.4 
484 1 0.000589376 0.000878756 -0.0124568 0.0109444 1112.1 
485 1 0.00039988 0.000833229 -0.0466802 0.00516749 1090.8 
486 1 0.000532716 0.00075086 -0.0673316 0.0305907 911.806 
487 1 0.000681537 0.000689382 0.0607675 -0.0355572 1047.6 
488 1 0.000468521 0.000766502 -0.0461205 -0.0603231 1236.55 
489 1 0.000456033 0.000869906 -0.0034762 -0.0634046 934.25 
490 1 0.000543011 0.000913442 -0.0160152 0.0744162 1161.63 
491 1 0.000513554 0.00058261 0.0543208 -0.0883412 1001.63 
492 1 0.000897571 0.000669054 0.00324618 0.0401299 1146.33 
493 1 0.000651396 0.00103609 -0.000647744 0.0703459 990.176 
494 1 0.000706386 0.000768704 -0.0364484 0.0103266 932.414 
495 1 0.00056911 0.000862497 -0.0622359 0.060826 1073.48 
496 1 0.000921134 0.000875124 -0.00221326 0.0260791 1019.09 
497 1 0.000683546 0.00082956 -0.0153157 0.0122567 1048.37 
498 1 0.00107886 0.000927833 0.0130517 -0.0479816 1064.2 
499 1 0.000573058 0.000731133 -0.0239365 0.0373184 725.176 
500 1 0.000643727 0.000876314 -0.0028235 -0.0741665 1115.76 
501 1 0.000654682 0.000844542 -0.0210593 0.0701293 1016.44 
502 1 0.000935044 0.000402761 0.0366184 -0.0578757 1066.86 