ITEM: TIMESTEP
0
ITEM: NUMBER OF ATOMS
750
ITEM: BOX BOUNDS ff pp pp
0 1
0 0.3
0 0.02
ITEM: ATOMS id type x y z c_ie_atom 
1 1 0 0 0 1 
2 1 0.02 0 0 1 
51 1 0 0.02 0 1 
52 1 0.02 0.02 0 1 
3 1 0.04 0 0 1 
4 1 0.06 0 0 1 
53 1 0.04 0.02 0 1 
54 1 0.06 0.02 0 1 
5 1 0.08 0 0 1 
55 1 0.08 0.02 0 1 
6 1 0.1 0 0 1 
7 1 0.12 0 0 1 
56 1 0.1 0.02 0 1 
57 1 0.12 0.02 0 1 
8 1 0.14 0 0 1 
58 1 0.14 0.02 0 1 
9 1 0.16 0 0 1 
10 1 0.18 0 0 1 
59 1 0.16 0.02 0 1 
60 1 0.18 0.02 0 1 
11 1 0.2 0 0 1 
61 1 0.2 0.02 0 1 
12 1 0.22 0 0 1 
13 1 0.24 0 0 1 
62 1 0.22 0.02 0 1 
63 1 0.24 0.02 0 1 
14 1 0.26 0 0 1 
15 1 0.28 0 0 1 
64 1 0.26 0.02 0 1 
65 1 0.28 0.02 0 1 
16 1 0.3 0 0 1 
66 1 0.3 0.02 0 1 
17 1 0.32 0 0 1 
18 1 0.34 0 0 1 
67 1 0.32 0.02 0 1 
68 1 0.34 0.02 0 1 
19 1 0.36 0 0 1 
69 1 0.36 0.02 0 1 
20 1 0.38 0 0 1 
21 1 0.4 0 0 1 
70 1 0.38 0.02 0 1 
71 1 0.4 0.02 0 1 
22 1 0.42 0 0 1 
72 1 0.42 0.02 0 1 
23 1 0.44 0 0 1 
24 1 0.46 0 0 1 
73 1 0.44 0.02 0 1 
74 1 0.46 0.02 0 1 
25 1 0.48 0 0 1 
75 1 0.48 0.02 0 1 
26 2 0.5 0 0 2 
27 2 0.52 0 0 2 
76 2 0.5 0.02 0 2 
77 2 0.52 0.02 0 2 
28 2 0.54 0 0 2 
29 2 0.56 0 0 2 
78 2 0.54 0.02 0 2 
79 2 0.56 0.02 0 2 
30 2 0.58 0 0 2 
80 2 0.58 0.02 0 2 
31 2 0.6 0 0 2 
32 2 0.62 0 0 2 
81 2 0.6 0.02 0 2 
82 2 0.62 0.02 0 2 
33 2 0.64 0 0 2 
83 2 0.64 0.02 0 2 
34 2 0.66 0 0 2 
35 2 0.68 0 0 2 
84 2 0.66 0.02 0 2 
85 2 0.68 0.02 0 2 
36 2 0.7 0 0 2 
86 2 0.7 0.02 0 2 
37 2 0.72 0 0 2 
38 2 0.74 0 0 2 
87 2 0.72 0.02 0 2 
88 2 0.74 0.02 0 2 
39 2 0.76 0 0 2 
40 2 0.78 0 0 2 
89 2 0.76 0.02 0 2 
90 2 0.78 0.02 0 2 
41 2 0.8 0 0 2 
91 2 0.8 0.02 0 2 
42 2 0.82 0 0 2 
43 2 0.84 0 0 2 
92 2 0.82 0.02 0 2 
93 2 0.84 0.02 0 2 
44 2 0.86 0 0 2 
94 2 0.86 0.02 0 2 
45 2 0.88 0 0 2 
46 2 0.9 0 0 2 
95 2 0.88 0.02 0 2 
96 2 0.9 0.02 0 2 
47 2 0.92 0 0 2 
97 2 0.92 0.02 0 2 
48 2 0.94 0 0 2 
49 2 0.96 0 0 2 
98 2 0.94 0.02 0 2 
99 2 0.96 0.02 0 2 
50 2 0.98 0 0 2 
100 2 0.98 0.02 0 2 
101 1 0 0.04 0 1 
102 1 0.02 0.04 0 1 
151 1 0 0.06 0 1 
152 1 0.02 0.06 0 1 
103 1 0.04 0.04 0 1 
104 1 0.06 0.04 0 1 
153 1 0.04 0.06 0 1 
154 1 0.06 0.06 0 1 
105 1 0.08 0.04 0 1 
155 1 0.08 0.06 0 1 
106 1 0.1 0.04 0 1 
107 1 0.12 0.04 0 1 
156 1 0.1 0.06 0 1 
157 1 0.12 0.06 0 1 
108 1 0.14 0.04 0 1 
158 1 0.14 0.06 0 1 
109 1 0.16 0.04 0 1 
110 1 0.18 0.04 0 1 
159 1 0.16 0.06 0 1 
160 1 0.18 0.06 0 1 
111 1 0.2 0.04 0 1 
161 1 0.2 0.06 0 1 
112 1 0.22 0.04 0 1 
113 1 0.24 0.04 0 1 
162 1 0.22 0.06 0 1 
163 1 0.24 0.06 0 1 
114 1 0.26 0.04 0 1 
115 1 0.28 0.04 0 1 
164 1 0.26 0.06 0 1 
165 1 0.28 0.06 0 1 
116 1 0.3 0.04 0 1 
166 1 0.3 0.06 0 1 
117 1 0.32 0.04 0 1 
118 1 0.34 0.04 0 1 
167 1 0.32 0.06 0 1 
168 1 0.34 0.06 0 1 
119 1 0.36 0.04 0 1 
169 1 0.36 0.06 0 1 
120 1 0.38 0.04 0 1 
121 1 0.4 0.04 0 1 
170 1 0.38 0.06 0 1 
171 1 0.4 0.06 0 1 
122 1 0.42 0.04 0 1 
172 1 0.42 0.06 0 1 
123 1 0.44 0.04 0 1 
124 1 0.46 0.04 0 1 
173 1 0.44 0.06 0 1 
174 1 0.46 0.06 0 1 
125 1 0.48 0.04 0 1 
175 1 0.48 0.06 0 1 
126 2 0.5 0.04 0 2 
127 2 0.52 0.04 0 2 
176 2 0.5 0.06 0 2 
177 2 0.52 0.06 0 2 
128 2 0.54 0.04 0 2 
129 2 0.56 0.04 0 2 
178 2 0.54 0.06 0 2 
179 2 0.56 0.06 0 2 
130 2 0.58 0.04 0 2 
180 2 0.58 0.06 0 2 
131 2 0.6 0.04 0 2 
132 2 0.62 0.04 0 2 
181 2 0.6 0.06 0 2 
182 2 0.62 0.06 0 2 
133 2 0.64 0.04 0 2 
183 2 0.64 0.06 0 2 
134 2 0.66 0.04 0 2 
135 2 0.68 0.04 0 2 
184 2 0.66 0.06 0 2 
185 2 0.68 0.06 0 2 
136 2 0.7 0.04 0 2 
186 2 0.7 0.06 0 2 
137 2 0.72 0.04 0 2 
138 2 0.74 0.04 0 2 
187 2 0.72 0.06 0 2 
188 2 0.74 0.06 0 2 
139 2 0.76 0.04 0 2 
140 2 0.78 0.04 0 2 
189 2 0.76 0.06 0 2 
190 2 0.78 0.06 0 2 
141 2 0.8 0.04 0 2 
191 2 0.8 0.06 0 2 
142 2 0.82 0.04 0 2 
143 2 0.84 0.04 0 2 
192 2 0.82 0.06 0 2 
193 2 0.84 0.06 0 2 
144 2 0.86 0.04 0 2 
194 2 0.86 0.06 0 2 
145 2 0.88 0.04 0 2 
146 2 0.9 0.04 0 2 
195 2 0.88 0.06 0 2 
196 2 0.9 0.06 0 2 
147 2 0.92 0.04 0 2 
197 2 0.92 0.06 0 2 
148 2 0.94 0.04 0 2 
149 2 0.96 0.04 0 2 
198 2 0.94 0.06 0 2 
199 2 0.96 0.06 0 2 
150 2 0.98 0.04 0 2 
200 2 0.98 0.06 0 2 
201 1 0 0.08 0 1 
202 1 0.02 0.08 0 1 
203 1 0.04 0.08 0 1 
204 1 0.06 0.08 0 1 
205 1 0.08 0.08 0 1 
206 1 0.1 0.08 0 1 
207 1 0.12 0.08 0 1 
208 1 0.14 0.08 0 1 
209 1 0.16 0.08 0 1 
210 1 0.18 0.08 0 1 
211 1 0.2 0.08 0 1 
212 1 0.22 0.08 0 1 
213 1 0.24 0.08 0 1 
214 1 0.26 0.08 0 1 
215 1 0.28 0.08 0 1 
216 1 0.3 0.08 0 1 
217 1 0.32 0.08 0 1 
218 1 0.34 0.08 0 1 
219 1 0.36 0.08 0 1 
220 1 0.38 0.08 0 1 
221 1 0.4 0.08 0 1 
222 1 0.42 0.08 0 1 
223 1 0.44 0.08 0 1 
224 1 0.46 0.08 0 1 
225 1 0.48 0.08 0 1 
226 2 0.5 0.08 0 2 
227 2 0.52 0.08 0 2 
228 2 0.54 0.08 0 2 
229 2 0.56 0.08 0 2 
230 2 0.58 0.08 0 2 
231 2 0.6 0.08 0 2 
232 2 0.62 0.08 0 2 
233 2 0.64 0.08 0 2 
234 2 0.66 0.08 0 2 
235 2 0.68 0.08 0 2 
236 2 0.7 0.08 0 2 
237 2 0.72 0.08 0 2 
238 2 0.74 0.08 0 2 
239 2 0.76 0.08 0 2 
240 2 0.78 0.08 0 2 
241 2 0.8 0.08 0 2 
242 2 0.82 0.08 0 2 
243 2 0.84 0.08 0 2 
244 2 0.86 0.08 0 2 
245 2 0.88 0.08 0 2 
246 2 0.9 0.08 0 2 
247 2 0.92 0.08 0 2 
248 2 0.94 0.08 0 2 
249 2 0.96 0.08 0 2 
250 2 0.98 0.08 0 2 
251 1 0 0.1 0 1 
252 1 0.02 0.1 0 1 
301 1 0 0.12 0 1 
302 1 0.02 0.12 0 1 
253 1 0.04 0.1 0 1 
254 1 0.06 0.1 0 1 
303 1 0.04 0.12 0 1 
304 1 0.06 0.12 0 1 
255 1 0.08 0.1 0 1 
305 1 0.08 0.12 0 1 
256 1 0.1 0.1 0 1 
257 1 0.12 0.1 0 1 
306 1 0.1 0.12 0 1 
307 1 0.12 0.12 0 1 
258 1 0.14 0.1 0 1 
308 1 0.14 0.12 0 1 
259 1 0.16 0.1 0 1 
260 1 0.18 0.1 0 1 
309 1 0.16 0.12 0 1 
310 1 0.18 0.12 0 1 
261 1 0.2 0.1 0 1 
311 1 0.2 0.12 0 1 
262 1 0.22 0.1 0 1 
263 1 0.24 0.1 0 1 
312 1 0.22 0.12 0 1 
313 1 0.24 0.12 0 1 
264 1 0.26 0.1 0 1 
265 1 0.28 0.1 0 1 
314 1 0.26 0.12 0 1 
315 1 0.28 0.12 0 1 
266 1 0.3 0.1 0 1 
316 1 0.3 0.12 0 1 
267 1 0.32 0.1 0 1 
268 1 0.34 0.1 0 1 
317 1 0.32 0.12 0 1 
318 1 0.34 0.12 0 1 
269 1 0.36 0.1 0 1 
319 1 0.36 0.12 0 1 
270 1 0.38 0.1 0 1 
271 1 0.4 0.1 0 1 
320 1 0.38 0.12 0 1 
321 1 0.4 0.12 0 1 
272 1 0.42 0.1 0 1 
322 1 0.42 0.12 0 1 
273 1 0.44 0.1 0 1 
274 1 0.46 0.1 0 1 
323 1 0.44 0.12 0 1 
324 1 0.46 0.12 0 1 
275 1 0.48 0.1 0 1 
325 1 0.48 0.12 0 1 
276 2 0.5 0.1 0 2 
277 2 0.52 0.1 0 2 
326 2 0.5 0.12 0 2 
327 2 0.52 0.12 0 2 
278 2 0.54 0.1 0 2 
279 2 0.56 0.1 0 2 
328 2 0.54 0.12 0 2 
329 2 0.56 0.12 0 2 
280 2 0.58 0.1 0 2 
330 2 0.58 0.12 0 2 
281 2 0.6 0.1 0 2 
282 2 0.62 0.1 0 2 
331 2 0.6 0.12 0 2 
332 2 0.62 0.12 0 2 
283 2 0.64 0.1 0 2 
333 2 0.64 0.12 0 2 
284 2 0.66 0.1 0 2 
285 2 0.68 0.1 0 2 
334 2 0.66 0.12 0 2 
335 2 0.68 0.12 0 2 
286 2 0.7 0.1 0 2 
336 2 0.7 0.12 0 2 
287 2 0.72 0.1 0 2 
288 2 0.74 0.1 0 2 
337 2 0.72 0.12 0 2 
338 2 0.74 0.12 0 2 
289 2 0.76 0.1 0 2 
290 2 0.78 0.1 0 2 
339 2 0.76 0.12 0 2 
340 2 0.78 0.12 0 2 
291 2 0.8 0.1 0 2 
341 2 0.8 0.12 0 2 
292 2 0.82 0.1 0 2 
293 2 0.84 0.1 0 2 
342 2 0.82 0.12 0 2 
343 2 0.84 0.12 0 2 
294 2 0.86 0.1 0 2 
344 2 0.86 0.12 0 2 
295 2 0.88 0.1 0 2 
296 2 0.9 0.1 0 2 
345 2 0.88 0.12 0 2 
346 2 0.9 0.12 0 2 
297 2 0.92 0.1 0 2 
347 2 0.92 0.12 0 2 
298 2 0.94 0.1 0 2 
299 2 0.96 0.1 0 2 
348 2 0.94 0.12 0 2 
349 2 0.96 0.12 0 2 
300 2 0.98 0.1 0 2 
350 2 0.98 0.12 0 2 
351 1 0 0.14 0 1 
352 1 0.02 0.14 0 1 
401 1 0 0.16 0 1 
402 1 0.02 0.16 0 1 
353 1 0.04 0.14 0 1 
354 1 0.06 0.14 0 1 
403 1 0.04 0.16 0 1 
404 1 0.06 0.16 0 1 
355 1 0.08 0.14 0 1 
405 1 0.08 0.16 0 1 
356 1 0.1 0.14 0 1 
357 1 0.12 0.14 0 1 
406 1 0.1 0.16 0 1 
407 1 0.12 0.16 0 1 
358 1 0.14 0.14 0 1 
408 1 0.14 0.16 0 1 
359 1 0.16 0.14 0 1 
360 1 0.18 0.14 0 1 
409 1 0.16 0.16 0 1 
410 1 0.18 0.16 0 1 
361 1 0.2 0.14 0 1 
411 1 0.2 0.16 0 1 
362 1 0.22 0.14 0 1 
363 1 0.24 0.14 0 1 
412 1 0.22 0.16 0 1 
413 1 0.24 0.16 0 1 
364 1 0.26 0.14 0 1 
365 1 0.28 0.14 0 1 
414 1 0.26 0.16 0 1 
415 1 0.28 0.16 0 1 
366 1 0.3 0.14 0 1 
416 1 0.3 0.16 0 1 
367 1 0.32 0.14 0 1 
368 1 0.34 0.14 0 1 
417 1 0.32 0.16 0 1 
418 1 0.34 0.16 0 1 
369 1 0.36 0.14 0 1 
419 1 0.36 0.16 0 1 
370 1 0.38 0.14 0 1 
371 1 0.4 0.14 0 1 
420 1 0.38 0.16 0 1 
421 1 0.4 0.16 0 1 
372 1 0.42 0.14 0 1 
422 1 0.42 0.16 0 1 
373 1 0.44 0.14 0 1 
374 1 0.46 0.14 0 1 
423 1 0.44 0.16 0 1 
424 1 0.46 0.16 0 1 
375 1 0.48 0.14 0 1 
425 1 0.48 0.16 0 1 
376 2 0.5 0.14 0 2 
377 2 0.52 0.14 0 2 
426 2 0.5 0.16 0 2 
427 2 0.52 0.16 0 2 
378 2 0.54 0.14 0 2 
379 2 0.56 0.14 0 2 
428 2 0.54 0.16 0 2 
429 2 0.56 0.16 0 2 
380 2 0.58 0.14 0 2 
430 2 0.58 0.16 0 2 
381 2 0.6 0.14 0 2 
382 2 0.62 0.14 0 2 
431 2 0.6 0.16 0 2 
432 2 0.62 0.16 0 2 
383 2 0.64 0.14 0 2 
433 2 0.64 0.16 0 2 
384 2 0.66 0.14 0 2 
385 2 0.68 0.14 0 2 
434 2 0.66 0.16 0 2 
435 2 0.68 0.16 0 2 
386 2 0.7 0.14 0 2 
436 2 0.7 0.16 0 2 
387 2 0.72 0.14 0 2 
388 2 0.74 0.14 0 2 
437 2 0.72 0.16 0 2 
438 2 0.74 0.16 0 2 
389 2 0.76 0.14 0 2 
390 2 0.78 0.14 0 2 
439 2 0.76 0.16 0 2 
440 2 0.78 0.16 0 2 
391 2 0.8 0.14 0 2 
441 2 0.8 0.16 0 2 
392 2 0.82 0.14 0 2 
393 2 0.84 0.14 0 2 
442 2 0.82 0.16 0 2 
443 2 0.84 0.16 0 2 
394 2 0.86 0.14 0 2 
444 2 0.86 0.16 0 2 
395 2 0.88 0.14 0 2 
396 2 0.9 0.14 0 2 
445 2 0.88 0.16 0 2 
446 2 0.9 0.16 0 2 
397 2 0.92 0.14 0 2 
447 2 0.92 0.16 0 2 
398 2 0.94 0.14 0 2 
399 2 0.96 0.14 0 2 
448 2 0.94 0.16 0 2 
449 2 0.96 0.16 0 2 
400 2 0.98 0.14 0 2 
450 2 0.98 0.16 0 2 
451 1 0 0.18 0 1 
452 1 0.02 0.18 0 1 
453 1 0.04 0.18 0 1 
454 1 0.06 0.18 0 1 
455 1 0.08 0.18 0 1 
456 1 0.1 0.18 0 1 
457 1 0.12 0.18 0 1 
458 1 0.14 0.18 0 1 
459 1 0.16 0.18 0 1 
460 1 0.18 0.18 0 1 
461 1 0.2 0.18 0 1 
462 1 0.22 0.18 0 1 
463 1 0.24 0.18 0 1 
464 1 0.26 0.18 0 1 
465 1 0.28 0.18 0 1 
466 1 0.3 0.18 0 1 
467 1 0.32 0.18 0 1 
468 1 0.34 0.18 0 1 
469 1 0.36 0.18 0 1 
470 1 0.38 0.18 0 1 
471 1 0.4 0.18 0 1 
472 1 0.42 0.18 0 1 
473 1 0.44 0.18 0 1 
474 1 0.46 0.18 0 1 
475 1 0.48 0.18 0 1 
476 2 0.5 0.18 0 2 
477 2 0.52 0.18 0 2 
478 2 0.54 0.18 0 2 
479 2 0.56 0.18 0 2 
480 2 0.58 0.18 0 2 
481 2 0.6 0.18 0 2 
482 2 0.62 0.18 0 2 
483 2 0.64 0.18 0 2 
484 2 0.66 0.18 0 2 
485 2 0.68 0.18 0 2 
486 2 0.7 0.18 0 2 
487 2 0.72 0.18 0 2 
488 2 0.74 0.18 0 2 
489 2 0.76 0.18 0 2 
490 2 0.78 0.18 0 2 
491 2 0.8 0.18 0 2 
492 2 0.82 0.18 0 2 
493 2 0.84 0.18 0 2 
494 2 0.86 0.18 0 2 
495 2 0.88 0.18 0 2 
496 2 0.9 0.18 0 2 
497 2 0.92 0.18 0 2 
498 2 0.94 0.18 0 2 
499 2 0.96 0.18 0 2 
500 2 0.98 0.18 0 2 
501 1 0 0.2 0 1 
502 1 0.02 0.2 0 1 
551 1 0 0.22 0 1 
552 1 0.02 0.22 0 1 
503 1 0.04 0.2 0 1 
504 1 0.06 0.2 0 1 
553 1 0.04 0.22 0 1 
554 1 0.06 0.22 0 1 
505 1 0.08 0.2 0 1 
555 1 0.08 0.22 0 1 
506 1 0.1 0.2 0 1 
507 1 0.12 0.2 0 1 
556 1 0.1 0.22 0 1 
557 1 0.12 0.22 0 1 
508 1 0.14 0.2 0 1 
558 1 0.14 0.22 0 1 
509 1 0.16 0.2 0 1 
510 1 0.18 0.2 0 1 
559 1 0.16 0.22 0 1 
560 1 0.18 0.22 0 1 
511 1 0.2 0.2 0 1 
561 1 0.2 0.22 0 1 
512 1 0.22 0.2 0 1 
513 1 0.24 0.2 0 1 
562 1 0.22 0.22 0 1 
563 1 0.24 0.22 0 1 
514 1 0.26 0.2 0 1 
515 1 0.28 0.2 0 1 
564 1 0.26 0.22 0 1 
565 1 0.28 0.22 0 1 
516 1 0.3 0.2 0 1 
566 1 0.3 0.22 0 1 
517 1 0.32 0.2 0 1 
518 1 0.34 0.2 0 1 
567 1 0.32 0.22 0 1 
568 1 0.34 0.22 0 1 
519 1 0.36 0.2 0 1 
569 1 0.36 0.22 0 1 
520 1 0.38 0.2 0 1 
521 1 0.4 0.2 0 1 
570 1 0.38 0.22 0 1 
571 1 0.4 0.22 0 1 
522 1 0.42 0.2 0 1 
572 1 0.42 0.22 0 1 
523 1 0.44 0.2 0 1 
524 1 0.46 0.2 0 1 
573 1 0.44 0.22 0 1 
574 1 0.46 0.22 0 1 
525 1 0.48 0.2 0 1 
575 1 0.48 0.22 0 1 
526 2 0.5 0.2 0 2 
527 2 0.52 0.2 0 2 
576 2 0.5 0.22 0 2 
577 2 0.52 0.22 0 2 
528 2 0.54 0.2 0 2 
529 2 0.56 0.2 0 2 
578 2 0.54 0.22 0 2 
579 2 0.56 0.22 0 2 
530 2 0.58 0.2 0 2 
580 2 0.58 0.22 0 2 
531 2 0.6 0.2 0 2 
532 2 0.62 0.2 0 2 
581 2 0.6 0.22 0 2 
582 2 0.62 0.22 0 2 
533 2 0.64 0.2 0 2 
583 2 0.64 0.22 0 2 
534 2 0.66 0.2 0 2 
535 2 0.68 0.2 0 2 
584 2 0.66 0.22 0 2 
585 2 0.68 0.22 0 2 
536 2 0.7 0.2 0 2 
586 2 0.7 0.22 0 2 
537 2 0.72 0.2 0 2 
538 2 0.74 0.2 0 2 
587 2 0.72 0.22 0 2 
588 2 0.74 0.22 0 2 
539 2 0.76 0.2 0 2 
540 2 0.78 0.2 0 2 
589 2 0.76 0.22 0 2 
590 2 0.78 0.22 0 2 
541 2 0.8 0.2 0 2 
591 2 0.8 0.22 0 2 
542 2 0.82 0.2 0 2 
543 2 0.84 0.2 0 2 
592 2 0.82 0.22 0 2 
593 2 0.84 0.22 0 2 
544 2 0.86 0.2 0 2 
594 2 0.86 0.22 0 2 
545 2 0.88 0.2 0 2 
546 2 0.9 0.2 0 2 
595 2 0.88 0.22 0 2 
596 2 0.9 0.22 0 2 
547 2 0.92 0.2 0 2 
597 2 0.92 0.22 0 2 
548 2 0.94 0.2 0 2 
549 2 0.96 0.2 0 2 
598 2 0.94 0.22 0 2 
599 2 0.96 0.22 0 2 
550 2 0.98 0.2 0 2 
600 2 0.98 0.22 0 2 
601 1 0 0.24 0 1 
602 1 0.02 0.24 0 1 
651 1 0 0.26 0 1 
652 1 0.02 0.26 0 1 
603 1 0.04 0.24 0 1 
604 1 0.06 0.24 0 1 
653 1 0.04 0.26 0 1 
654 1 0.06 0.26 0 1 
605 1 0.08 0.24 0 1 
655 1 0.08 0.26 0 1 
606 1 0.1 0.24 0 1 
607 1 0.12 0.24 0 1 
656 1 0.1 0.26 0 1 
657 1 0.12 0.26 0 1 
608 1 0.14 0.24 0 1 
658 1 0.14 0.26 0 1 
609 1 0.16 0.24 0 1 
610 1 0.18 0.24 0 1 
659 1 0.16 0.26 0 1 
660 1 0.18 0.26 0 1 
611 1 0.2 0.24 0 1 
661 1 0.2 0.26 0 1 
612 1 0.22 0.24 0 1 
613 1 0.24 0.24 0 1 
662 1 0.22 0.26 0 1 
663 1 0.24 0.26 0 1 
614 1 0.26 0.24 0 1 
615 1 0.28 0.24 0 1 
664 1 0.26 0.26 0 1 
665 1 0.28 0.26 0 1 
616 1 0.3 0.24 0 1 
666 1 0.3 0.26 0 1 
617 1 0.32 0.24 0 1 
618 1 0.34 0.24 0 1 
667 1 0.32 0.26 0 1 
668 1 0.34 0.26 0 1 
619 1 0.36 0.24 0 1 
669 1 0.36 0.26 0 1 
620 1 0.38 0.24 0 1 
621 1 0.4 0.24 0 1 
670 1 0.38 0.26 0 1 
671 1 0.4 0.26 0 1 
622 1 0.42 0.24 0 1 
672 1 0.42 0.26 0 1 
623 1 0.44 0.24 0 1 
624 1 0.46 0.24 0 1 
673 1 0.44 0.26 0 1 
674 1 0.46 0.26 0 1 
625 1 0.48 0.24 0 1 
675 1 0.48 0.26 0 1 
626 2 0.5 0.24 0 2 
627 2 0.52 0.24 0 2 
676 2 0.5 0.26 0 2 
677 2 0.52 0.26 0 2 
628 2 0.54 0.24 0 2 
629 2 0.56 0.24 0 2 
678 2 0.54 0.26 0 2 
679 2 0.56 0.26 0 2 
630 2 0.58 0.24 0 2 
680 2 0.58 0.26 0 2 
631 2 0.6 0.24 0 2 
632 2 0.62 0.24 0 2 
681 2 0.6 0.26 0 2 
682 2 0.62 0.26 0 2 
633 2 0.64 0.24 0 2 
683 2 0.64 0.26 0 2 
634 2 0.66 0.24 0 2 
635 2 0.68 0.24 0 2 
684 2 0.66 0.26 0 2 
685 2 0.68 0.26 0 2 
636 2 0.7 0.24 0 2 
686 2 0.7 0.26 0 2 
637 2 0.72 0.24 0 2 
638 2 0.74 0.24 0 2 
687 2 0.72 0.26 0 2 
688 2 0.74 0.26 0 2 
639 2 0.76 0.24 0 2 
640 2 0.78 0.24 0 2 
689 2 0.76 0.26 0 2 
690 2 0.78 0.26 0 2 
641 2 0.8 0.24 0 2 
691 2 0.8 0.26 0 2 
642 2 0.82 0.24 0 2 
643 2 0.84 0.24 0 2 
692 2 0.82 0.26 0 2 
693 2 0.84 0.26 0 2 
644 2 0.86 0.24 0 2 
694 2 0.86 0.26 0 2 
645 2 0.88 0.24 0 2 
646 2 0.9 0.24 0 2 
695 2 0.88 0.26 0 2 
696 2 0.9 0.26 0 2 
647 2 0.92 0.24 0 2 
697 2 0.92 0.26 0 2 
648 2 0.94 0.24 0 2 
649 2 0.96 0.24 0 2 
698 2 0.94 0.26 0 2 
699 2 0.96 0.26 0 2 
650 2 0.98 0.24 0 2 
700 2 0.98 0.26 0 2 
701 1 0 0.28 0 1 
702 1 0.02 0.28 0 1 
703 1 0.04 0.28 0 1 
704 1 0.06 0.28 0 1 
705 1 0.08 0.28 0 1 
706 1 0.1 0.28 0 1 
707 1 0.12 0.28 0 1 
708 1 0.14 0.28 0 1 
709 1 0.16 0.28 0 1 
710 1 0.18 0.28 0 1 
711 1 0.2 0.28 0 1 
712 1 0.22 0.28 0 1 
713 1 0.24 0.28 0 1 
714 1 0.26 0.28 0 1 
715 1 0.28 0.28 0 1 
716 1 0.3 0.28 0 1 
717 1 0.32 0.28 0 1 
718 1 0.34 0.28 0 1 
719 1 0.36 0.28 0 1 
720 1 0.38 0.28 0 1 
721 1 0.4 0.28 0 1 
722 1 0.42 0.28 0 1 
723 1 0.44 0.28 0 1 
724 1 0.46 0.28 0 1 
725 1 0.48 0.28 0 1 
726 2 0.5 0.28 0 2 
727 2 0.52 0.28 0 2 
728 2 0.54 0.28 0 2 
729 2 0.56 0.28 0 2 
730 2 0.58 0.28 0 2 
731 2 0.6 0.28 0 2 
732 2 0.62 0.28 0 2 
733 2 0.64 0.28 0 2 
734 2 0.66 0.28 0 2 
735 2 0.68 0.28 0 2 
736 2 0.7 0.28 0 2 
737 2 0.72 0.28 0 2 
738 2 0.74 0.28 0 2 
739 2 0.76 0.28 0 2 
740 2 0.78 0.28 0 2 
741 2 0.8 0.28 0 2 
742 2 0.82 0.28 0 2 
743 2 0.84 0.28 0 2 
744 2 0.86 0.28 0 2 
745 2 0.88 0.28 0 2 
746 2 0.9 0.28 0 2 
747 2 0.92 0.28 0 2 
748 2 0.94 0.28 0 2 
749 2 0.96 0.28 0 2 
750 2 0.98 0.28 0 2 
ITEM: TIMESTEP
10
ITEM: NUMBER OF ATOMS
750
ITEM: BOX BOUNDS ff pp pp
0 1
0 0.3
0 0.02
ITEM: ATOMS id type x y z c_ie_atom 
1 1 0 0 0 1 
2 1 0.02 0 0 1 
51 1 0 0.02 0 1 
52 1 0.02 0.02 0 1 
3 1 0.04 0 0 1 
4 1 0.06 0 0 1 
53 1 0.04 0.02 0 1 
54 1 0.06 0.02 0 1 
5 1 0.08 0 0 1 
55 1 0.08 0.02 0 1 
6 1 0.1 0 0 1 
7 1 0.12 0 0 1 
56 1 0.1 0.02 0 1 
57 1 0.12 0.02 0 1 
8 1 0.14 0 0 1 
58 1 0.14 0.02 0 1 
9 1 0.16 0 0 1 
10 1 0.18 0 0 1 
59 1 0.16 0.02 0 1 
60 1 0.18 0.02 0 1 
11 1 0.2 0 0 1 
61 1 0.2 0.02 0 1 
12 1 0.22 0 0 1 
13 1 0.24 0 0 1 
62 1 0.22 0.02 0 1 
63 1 0.24 0.02 0 1 
14 1 0.26 0 0 1 
15 1 0.28 0 0 1 
64 1 0.26 0.02 0 1 
65 1 0.28 0.02 0 1 
16 1 0.3 0 0 1 
66 1 0.3 0.02 0 1 
17 1 0.32 0 0 1 
18 1 0.34 0 0 1 
67 1 0.32 0.02 0 1 
68 1 0.34 0.02 0 1 
19 1 0.36 0 0 1 
69 1 0.36 0.02 0 1 
20 1 0.38 0 0 1.00001 
21 1 0.4 0 0 1.00006 
70 1 0.38 0.02 0 1.00001 
71 1 0.4 0.02 0 1.00006 
22 1 0.42 0 0 1.00049 
72 1 0.42 0.02 0 1.00049 
23 1 0.44 0 0 1.00334 
24 1 0.46 0 0 1.01796 
73 1 0.44 0.02 0 1.00334 
74 1 0.46 0.02 0 1.01796 
25 1 0.48 0 0 1.07513 
75 1 0.48 0.02 0 1.07513 
26 2 0.5 0 0 1.90934 
27 2 0.52 0 0 1.99389 
76 2 0.5 0.02 0 1.90934 
77 2 0.52 0.02 0 1.99389 
28 2 0.54 0 0 1.99978 
29 2 0.56 0 0 1.99999 
78 2 0.54 0.02 0 1.99978 
79 2 0.56 0.02 0 1.99999 
30 2 0.58 0 0 2 
80 2 0.58 0.02 0 2 
31 2 0.6 0 0 2 
32 2 0.62 0 0 2 
81 2 0.6 0.02 0 2 
82 2 0.62 0.02 0 2 
33 2 0.64 0 0 2 
83 2 0.64 0.02 0 2 
34 2 0.66 0 0 2 
35 2 0.68 0 0 2 
84 2 0.66 0.02 0 2 
85 2 0.68 0.02 0 2 
36 2 0.7 0 0 2 
86 2 0.7 0.02 0 2 
37 2 0.72 0 0 2 
38 2 0.74 0 0 2 
87 2 0.72 0.02 0 2 
88 2 0.74 0.02 0 2 
39 2 0.76 0 0 2 
40 2 0.78 0 0 2 
89 2 0.76 0.02 0 2 
90 2 0.78 0.02 0 2 
41 2 0.8 0 0 2 
91 2 0.8 0.02 0 2 
42 2 0.82 0 0 2 
43 2 0.84 0 0 2 
92 2 0.82 0.02 0 2 
93 2 0.84 0.02 0 2 
44 2 0.86 0 0 2 
94 2 0.86 0.02 0 2 
45 2 0.88 0 0 2 
46 2 0.9 0 0 2 
95 2 0.88 0.02 0 2 
96 2 0.9 0.02 0 2 
47 2 0.92 0 0 2 
97 2 0.92 0.02 0 2 
48 2 0.94 0 0 2 
49 2 0.96 0 0 2 
98 2 0.94 0.02 0 2 
99 2 0.96 0.02 0 2 
50 2 0.98 0 0 2 
100 2 0.98 0.02 0 2 
101 1 0 0.04 0 1 
102 1 0.02 0.04 0 1 
151 1 0 0.06 0 1 
152 1 0.02 0.06 0 1 
103 1 0.04 0.04 0 1 
104 1 0.06 0.04 0 1 
153 1 0.04 0.06 0 1 
154 1 0.06 0.06 0 1 
105 1 0.08 0.04 0 1 
155 1 0.08 0.06 0 1 
106 1 0.1 0.04 0 1 
107 1 0.12 0.04 0 1 
156 1 0.1 0.06 0 1 
157 1 0.12 0.06 0 1 
108 1 0.14 0.04 0 1 
158 1 0.14 0.06 0 1 
109 1 0.16 0.04 0 1 
110 1 0.18 0.04 0 1 
159 1 0.16 0.06 0 1 
160 1 0.18 0.06 0 1 
111 1 0.2 0.04 0 1 
161 1 0.2 0.06 0 1 
112 1 0.22 0.04 0 1 
113 1 0.24 0.04 0 1 
162 1 0.22 0.06 0 1 
163 1 0.24 0.06 0 1 
114 1 0.26 0.04 0 1 
115 1 0.28 0.04 0 1 
164 1 0.26 0.06 0 1 
165 1 0.28 0.06 0 1 
116 1 0.3 0.04 0 1 
166 1 0.3 0.06 0 1 
117 1 0.32 0.04 0 1 
118 1 0.34 0.04 0 1 
167 1 0.32 0.06 0 1 
168 1 0.34 0.06 0 1 
119 1 0.36 0.04 0 1 
169 1 0.36 0.06 0 1 
120 1 0.38 0.04 0 1.00001 
121 1 0.4 0.04 0 1.00006 
170 1 0.38 0.06 0 1.00001 
171 1 0.4 0.06 0 1.00006 
122 1 0.42 0.04 0 1.00049 
172 1 0.42 0.06 0 1.00049 
123 1 0.44 0.04 0 1.00334 
124 1 0.46 0.04 0 1.01796 
173 1 0.44 0.06 0 1.00334 
174 1 0.46 0.06 0 1.01796 
125 1 0.48 0.04 0 1.07513 
175 1 0.48 0.06 0 1.07513 
126 2 0.5 0.04 0 1.90934 
127 2 0.52 0.04 0 1.99389 
176 2 0.5 0.06 0 1.90934 
177 2 0.52 0.06 0 1.99389 
128 2 0.54 0.04 0 1.99978 
129 2 0.56 0.04 0 1.99999 
178 2 0.54 0.06 0 1.99978 
179 2 0.56 0.06 0 1.99999 
130 2 0.58 0.04 0 2 
180 2 0.58 0.06 0 2 
131 2 0.6 0.04 0 2 
132 2 0.62 0.04 0 2 
181 2 0.6 0.06 0 2 
182 2 0.62 0.06 0 2 
133 2 0.64 0.04 0 2 
183 2 0.64 0.06 0 2 
134 2 0.66 0.04 0 2 
135 2 0.68 0.04 0 2 
184 2 0.66 0.06 0 2 
185 2 0.68 0.06 0 2 
136 2 0.7 0.04 0 2 
186 2 0.7 0.06 0 2 
137 2 0.72 0.04 0 2 
138 2 0.74 0.04 0 2 
187 2 0.72 0.06 0 2 
188 2 0.74 0.06 0 2 
139 2 0.76 0.04 0 2 
140 2 0.78 0.04 0 2 
189 2 0.76 0.06 0 2 
190 2 0.78 0.06 0 2 
141 2 0.8 0.04 0 2 
191 2 0.8 0.06 0 2 
142 2 0.82 0.04 0 2 
143 2 0.84 0.04 0 2 
192 2 0.82 0.06 0 2 
193 2 0.84 0.06 0 2 
144 2 0.86 0.04 0 2 
194 2 0.86 0.06 0 2 
145 2 0.88 0.04 0 2 
146 2 0.9 0.04 0 2 
195 2 0.88 0.06 0 2 
196 2 0.9 0.06 0 2 
147 2 0.92 0.04 0 2 
197 2 0.92 0.06 0 2 
148 2 0.94 0.04 0 2 
149 2 0.96 0.04 0 2 
198 2 0.94 0.06 0 2 
199 2 0.96 0.06 0 2 
150 2 0.98 0.04 0 2 
200 2 0.98 0.06 0 2 
201 1 0 0.08 0 1 
202 1 0.02 0.08 0 1 
203 1 0.04 0.08 0 1 
204 1 0.06 0.08 0 1 
205 1 0.08 0.08 0 1 
206 1 0.1 0.08 0 1 
207 1 0.12 0.08 0 1 
208 1 0.14 0.08 0 1 
209 1 0.16 0.08 0 1 
210 1 0.18 0.08 0 1 
211 1 0.2 0.08 0 1 
212 1 0.22 0.08 0 1 
213 1 0.24 0.08 0 1 
214 1 0.26 0.08 0 1 
215 1 0.28 0.08 0 1 
216 1 0.3 0.08 0 1 
217 1 0.32 0.08 0 1 
218 1 0.34 0.08 0 1 
219 1 0.36 0.08 0 1 
220 1 0.38 0.08 0 1.00001 
221 1 0.4 0.08 0 1.00006 
222 1 0.42 0.08 0 1.00049 
223 1 0.44 0.08 0 1.00334 
224 1 0.46 0.08 0 1.01796 
225 1 0.48 0.08 0 1.07513 
226 2 0.5 0.08 0 1.90934 
227 2 0.52 0.08 0 1.99389 
228 2 0.54 0.08 0 1.99978 
229 2 0.56 0.08 0 1.99999 
230 2 0.58 0.08 0 2 
231 2 0.6 0.08 0 2 
232 2 0.62 0.08 0 2 
233 2 0.64 0.08 0 2 
234 2 0.66 0.08 0 2 
235 2 0.68 0.08 0 2 
236 2 0.7 0.08 0 2 
237 2 0.72 0.08 0 2 
238 2 0.74 0.08 0 2 
239 2 0.76 0.08 0 2 
240 2 0.78 0.08 0 2 
241 2 0.8 0.08 0 2 
242 2 0.82 0.08 0 2 
243 2 0.84 0.08 0 2 
244 2 0.86 0.08 0 2 
245 2 0.88 0.08 0 2 
246 2 0.9 0.08 0 2 
247 2 0.92 0.08 0 2 
248 2 0.94 0.08 0 2 
249 2 0.96 0.08 0 2 
250 2 0.98 0.08 0 2 
251 1 0 0.1 0 1 
252 1 0.02 0.1 0 1 
301 1 0 0.12 0 1 
302 1 0.02 0.12 0 1 
253 1 0.04 0.1 0 1 
254 1 0.06 0.1 0 1 
303 1 0.04 0.12 0 1 
304 1 0.06 0.12 0 1 
255 1 0.08 0.1 0 1 
305 1 0.08 0.12 0 1 
256 1 0.1 0.1 0 1 
257 1 0.12 0.1 0 1 
306 1 0.1 0.12 0 1 
307 1 0.12 0.12 0 1 
258 1 0.14 0.1 0 1 
308 1 0.14 0.12 0 1 
259 1 0.16 0.1 0 1 
260 1 0.18 0.1 0 1 
309 1 0.16 0.12 0 1 
310 1 0.18 0.12 0 1 
261 1 0.2 0.1 0 1 
311 1 0.2 0.12 0 1 
262 1 0.22 0.1 0 1 
263 1 0.24 0.1 0 1 
312 1 0.22 0.12 0 1 
313 1 0.24 0.12 0 1 
264 1 0.26 0.1 0 1 
265 1 0.28 0.1 0 1 
314 1 0.26 0.12 0 1 
315 1 0.28 0.12 0 1 
266 1 0.3 0.1 0 1 
316 1 0.3 0.12 0 1 
267 1 0.32 0.1 0 1 
268 1 0.34 0.1 0 1 
317 1 0.32 0.12 0 1 
318 1 0.34 0.12 0 1 
269 1 0.36 0.1 0 1 
319 1 0.36 0.12 0 1 
270 1 0.38 0.1 0 1.00001 
271 1 0.4 0.1 0 1.00006 
320 1 0.38 0.12 0 1.00001 
321 1 0.4 0.12 0 1.00006 
272 1 0.42 0.1 0 1.00049 
322 1 0.42 0.12 0 1.00049 
273 1 0.44 0.1 0 1.00334 
274 1 0.46 0.1 0 1.01796 
323 1 0.44 0.12 0 1.00334 
324 1 0.46 0.12 0 1.01796 
275 1 0.48 0.1 0 1.07513 
325 1 0.48 0.12 0 1.07513 
276 2 0.5 0.1 0 1.90934 
277 2 0.52 0.1 0 1.99389 
326 2 0.5 0.12 0 1.90934 
327 2 0.52 0.12 0 1.99389 
278 2 0.54 0.1 0 1.99978 
279 2 0.56 0.1 0 1.99999 
328 2 0.54 0.12 0 1.99978 
329 2 0.56 0.12 0 1.99999 
280 2 0.58 0.1 0 2 
330 2 0.58 0.12 0 2 
281 2 0.6 0.1 0 2 
282 2 0.62 0.1 0 2 
331 2 0.6 0.12 0 2 
332 2 0.62 0.12 0 2 
283 2 0.64 0.1 0 2 
333 2 0.64 0.12 0 2 
284 2 0.66 0.1 0 2 
285 2 0.68 0.1 0 2 
334 2 0.66 0.12 0 2 
335 2 0.68 0.12 0 2 
286 2 0.7 0.1 0 2 
336 2 0.7 0.12 0 2 
287 2 0.72 0.1 0 2 
288 2 0.74 0.1 0 2 
337 2 0.72 0.12 0 2 
338 2 0.74 0.12 0 2 
289 2 0.76 0.1 0 2 
290 2 0.78 0.1 0 2 
339 2 0.76 0.12 0 2 
340 2 0.78 0.12 0 2 
291 2 0.8 0.1 0 2 
341 2 0.8 0.12 0 2 
292 2 0.82 0.1 0 2 
293 2 0.84 0.1 0 2 
342 2 0.82 0.12 0 2 
343 2 0.84 0.12 0 2 
294 2 0.86 0.1 0 2 
344 2 0.86 0.12 0 2 
295 2 0.88 0.1 0 2 
296 2 0.9 0.1 0 2 
345 2 0.88 0.12 0 2 
346 2 0.9 0.12 0 2 
297 2 0.92 0.1 0 2 
347 2 0.92 0.12 0 2 
298 2 0.94 0.1 0 2 
299 2 0.96 0.1 0 2 
348 2 0.94 0.12 0 2 
349 2 0.96 0.12 0 2 
300 2 0.98 0.1 0 2 
350 2 0.98 0.12 0 2 
351 1 0 0.14 0 1 
352 1 0.02 0.14 0 1 
401 1 0 0.16 0 1 
402 1 0.02 0.16 0 1 
353 1 0.04 0.14 0 1 
354 1 0.06 0.14 0 1 
403 1 0.04 0.16 0 1 
404 1 0.06 0.16 0 1 
355 1 0.08 0.14 0 1 
405 1 0.08 0.16 0 1 
356 1 0.1 0.14 0 1 
357 1 0.12 0.14 0 1 
406 1 0.1 0.16 0 1 
407 1 0.12 0.16 0 1 
358 1 0.14 0.14 0 1 
408 1 0.14 0.16 0 1 
359 1 0.16 0.14 0 1 
360 1 0.18 0.14 0 1 
409 1 0.16 0.16 0 1 
410 1 0.18 0.16 0 1 
361 1 0.2 0.14 0 1 
411 1 0.2 0.16 0 1 
362 1 0.22 0.14 0 1 
363 1 0.24 0.14 0 1 
412 1 0.22 0.16 0 1 
413 1 0.24 0.16 0 1 
364 1 0.26 0.14 0 1 
365 1 0.28 0.14 0 1 
414 1 0.26 0.16 0 1 
415 1 0.28 0.16 0 1 
366 1 0.3 0.14 0 1 
416 1 0.3 0.16 0 1 
367 1 0.32 0.14 0 1 
368 1 0.34 0.14 0 1 
417 1 0.32 0.16 0 1 
418 1 0.34 0.16 0 1 
369 1 0.36 0.14 0 1 
419 1 0.36 0.16 0 1 
370 1 0.38 0.14 0 1.00001 
371 1 0.4 0.14 0 1.00006 
420 1 0.38 0.16 0 1.00001 
421 1 0.4 0.16 0 1.00006 
372 1 0.42 0.14 0 1.00049 
422 1 0.42 0.16 0 1.00049 
373 1 0.44 0.14 0 1.00334 
374 1 0.46 0.14 0 1.01796 
423 1 0.44 0.16 0 1.00334 
424 1 0.46 0.16 0 1.01796 
375 1 0.48 0.14 0 1.07513 
425 1 0.48 0.16 0 1.07513 
376 2 0.5 0.14 0 1.90934 
377 2 0.52 0.14 0 1.99389 
426 2 0.5 0.16 0 1.90934 
427 2 0.52 0.16 0 1.99389 
378 2 0.54 0.14 0 1.99978 
379 2 0.56 0.14 0 1.99999 
428 2 0.54 0.16 0 1.99978 
429 2 0.56 0.16 0 1.99999 
380 2 0.58 0.14 0 2 
430 2 0.58 0.16 0 2 
381 2 0.6 0.14 0 2 
382 2 0.62 0.14 0 2 
431 2 0.6 0.16 0 2 
432 2 0.62 0.16 0 2 
383 2 0.64 0.14 0 2 
433 2 0.64 0.16 0 2 
384 2 0.66 0.14 0 2 
385 2 0.68 0.14 0 2 
434 2 0.66 0.16 0 2 
435 2 0.68 0.16 0 2 
386 2 0.7 0.14 0 2 
436 2 0.7 0.16 0 2 
387 2 0.72 0.14 0 2 
388 2 0.74 0.14 0 2 
437 2 0.72 0.16 0 2 
438 2 0.74 0.16 0 2 
389 2 0.76 0.14 0 2 
390 2 0.78 0.14 0 2 
439 2 0.76 0.16 0 2 
440 2 0.78 0.16 0 2 
391 2 0.8 0.14 0 2 
441 2 0.8 0.16 0 2 
392 2 0.82 0.14 0 2 
393 2 0.84 0.14 0 2 
442 2 0.82 0.16 0 2 
443 2 0.84 0.16 0 2 
394 2 0.86 0.14 0 2 
444 2 0.86 0.16 0 2 
395 2 0.88 0.14 0 2 
396 2 0.9 0.14 0 2 
445 2 0.88 0.16 0 2 
446 2 0.9 0.16 0 2 
397 2 0.92 0.14 0 2 
447 2 0.92 0.16 0 2 
398 2 0.94 0.14 0 2 
399 2 0.96 0.14 0 2 
448 2 0.94 0.16 0 2 
449 2 0.96 0.16 0 2 
400 2 0.98 0.14 0 2 
450 2 0.98 0.16 0 2 
451 1 0 0.18 0 1 
452 1 0.02 0.18 0 1 
453 1 0.04 0.18 0 1 
454 1 0.06 0.18 0 1 
455 1 0.08 0.18 0 1 
456 1 0.1 0.18 0 1 
457 1 0.12 0.18 0 1 
458 1 0.14 0.18 0 1 
459 1 0.16 0.18 0 1 
460 1 0.18 0.18 0 1 
461 1 0.2 0.18 0 1 
462 1 0.22 0.18 0 1 
463 1 0.24 0.18 0 1 
464 1 0.26 0.18 0 1 
465 1 0.28 0.18 0 1 
466 1 0.3 0.18 0 1 
467 1 0.32 0.18 0 1 
468 1 0.34 0.18 0 1 
469 1 0.36 0.18 0 1 
470 1 0.38 0.18 0 1.00001 
471 1 0.4 0.18 0 1.00006 
472 1 0.42 0.18 0 1.00049 
473 1 0.44 0.18 0 1.00334 
474 1 0.46 0.18 0 1.01796 
475 1 0.48 0.18 0 1.07513 
476 2 0.5 0.18 0 1.90934 
477 2 0.52 0.18 0 1.99389 
478 2 0.54 0.18 0 1.99978 
479 2 0.56 0.18 0 1.99999 
480 2 0.58 0.18 0 2 
481 2 0.6 0.18 0 2 
482 2 0.62 0.18 0 2 
483 2 0.64 0.18 0 2 
484 2 0.66 0.18 0 2 
485 2 0.68 0.18 0 2 
486 2 0.7 0.18 0 2 
487 2 0.72 0.18 0 2 
488 2 0.74 0.18 0 2 
489 2 0.76 0.18 0 2 
490 2 0.78 0.18 0 2 
491 2 0.8 0.18 0 2 
492 2 0.82 0.18 0 2 
493 2 0.84 0.18 0 2 
494 2 0.86 0.18 0 2 
495 2 0.88 0.18 0 2 
496 2 0.9 0.18 0 2 
497 2 0.92 0.18 0 2 
498 2 0.94 0.18 0 2 
499 2 0.96 0.18 0 2 
500 2 0.98 0.18 0 2 
501 1 0 0.2 0 1 
502 1 0.02 0.2 0 1 
551 1 0 0.22 0 1 
552 1 0.02 0.22 0 1 
503 1 0.04 0.2 0 1 
504 1 0.06 0.2 0 1 
553 1 0.04 0.22 0 1 
554 1 0.06 0.22 0 1 
505 1 0.08 0.2 0 1 
555 1 0.08 0.22 0 1 
506 1 0.1 0.2 0 1 
507 1 0.12 0.2 0 1 
556 1 0.1 0.22 0 1 
557 1 0.12 0.22 0 1 
508 1 0.14 0.2 0 1 
558 1 0.14 0.22 0 1 
509 1 0.16 0.2 0 1 
510 1 0.18 0.2 0 1 
559 1 0.16 0.22 0 1 
560 1 0.18 0.22 0 1 
511 1 0.2 0.2 0 1 
561 1 0.2 0.22 0 1 
512 1 0.22 0.2 0 1 
513 1 0.24 0.2 0 1 
562 1 0.22 0.22 0 1 
563 1 0.24 0.22 0 1 
514 1 0.26 0.2 0 1 
515 1 0.28 0.2 0 1 
564 1 0.26 0.22 0 1 
565 1 0.28 0.22 0 1 
516 1 0.3 0.2 0 1 
566 1 0.3 0.22 0 1 
517 1 0.32 0.2 0 1 
518 1 0.34 0.2 0 1 
567 1 0.32 0.22 0 1 
568 1 0.34 0.22 0 1 
519 1 0.36 0.2 0 1 
569 1 0.36 0.22 0 1 
520 1 0.38 0.2 0 1.00001 
521 1 0.4 0.2 0 1.00006 
570 1 0.38 0.22 0 1.00001 
571 1 0.4 0.22 0 1.00006 
522 1 0.42 0.2 0 1.00049 
572 1 0.42 0.22 0 1.00049 
523 1 0.44 0.2 0 1.00334 
524 1 0.46 0.2 0 1.01796 
573 1 0.44 0.22 0 1.00334 
574 1 0.46 0.22 0 1.01796 
525 1 0.48 0.2 0 1.07513 
575 1 0.48 0.22 0 1.07513 
526 2 0.5 0.2 0 1.90934 
527 2 0.52 0.2 0 1.99389 
576 2 0.5 0.22 0 1.90934 
577 2 0.52 0.22 0 1.99389 
528 2 0.54 0.2 0 1.99978 
529 2 0.56 0.2 0 1.99999 
578 2 0.54 0.22 0 1.99978 
579 2 0.56 0.22 0 1.99999 
530 2 0.58 0.2 0 2 
580 2 0.58 0.22 0 2 
531 2 0.6 0.2 0 2 
532 2 0.62 0.2 0 2 
581 2 0.6 0.22 0 2 
582 2 0.62 0.22 0 2 
533 2 0.64 0.2 0 2 
583 2 0.64 0.22 0 2 
534 2 0.66 0.2 0 2 
535 2 0.68 0.2 0 2 
584 2 0.66 0.22 0 2 
585 2 0.68 0.22 0 2 
536 2 0.7 0.2 0 2 
586 2 0.7 0.22 0 2 
537 2 0.72 0.2 0 2 
538 2 0.74 0.2 0 2 
587 2 0.72 0.22 0 2 
588 2 0.74 0.22 0 2 
539 2 0.76 0.2 0 2 
540 2 0.78 0.2 0 2 
589 2 0.76 0.22 0 2 
590 2 0.78 0.22 0 2 
541 2 0.8 0.2 0 2 
591 2 0.8 0.22 0 2 
542 2 0.82 0.2 0 2 
543 2 0.84 0.2 0 2 
592 2 0.82 0.22 0 2 
593 2 0.84 0.22 0 2 
544 2 0.86 0.2 0 2 
594 2 0.86 0.22 0 2 
545 2 0.88 0.2 0 2 
546 2 0.9 0.2 0 2 
595 2 0.88 0.22 0 2 
596 2 0.9 0.22 0 2 
547 2 0.92 0.2 0 2 
597 2 0.92 0.22 0 2 
548 2 0.94 0.2 0 2 
549 2 0.96 0.2 0 2 
598 2 0.94 0.22 0 2 
599 2 0.96 0.22 0 2 
550 2 0.98 0.2 0 2 
600 2 0.98 0.22 0 2 
601 1 0 0.24 0 1 
602 1 0.02 0.24 0 1 
651 1 0 0.26 0 1 
652 1 0.02 0.26 0 1 
603 1 0.04 0.24 0 1 
604 1 0.06 0.24 0 1 
653 1 0.04 0.26 0 1 
654 1 0.06 0.26 0 1 
605 1 0.08 0.24 0 1 
655 1 0.08 0.26 0 1 
606 1 0.1 0.24 0 1 
607 1 0.12 0.24 0 1 
656 1 0.1 0.26 0 1 
657 1 0.12 0.26 0 1 
608 1 0.14 0.24 0 1 
658 1 0.14 0.26 0 1 
609 1 0.16 0.24 0 1 
610 1 0.18 0.24 0 1 
659 1 0.16 0.26 0 1 
660 1 0.18 0.26 0 1 
611 1 0.2 0.24 0 1 
661 1 0.2 0.26 0 1 
612 1 0.22 0.24 0 1 
613 1 0.24 0.24 0 1 
662 1 0.22 0.26 0 1 
663 1 0.24 0.26 0 1 
614 1 0.26 0.24 0 1 
615 1 0.28 0.24 0 1 
664 1 0.26 0.26 0 1 
665 1 0.28 0.26 0 1 
616 1 0.3 0.24 0 1 
666 1 0.3 0.26 0 1 
617 1 0.32 0.24 0 1 
618 1 0.34 0.24 0 1 
667 1 0.32 0.26 0 1 
668 1 0.34 0.26 0 1 
619 1 0.36 0.24 0 1 
669 1 0.36 0.26 0 1 
620 1 0.38 0.24 0 1.00001 
621 1 0.4 0.24 0 1.00006 
670 1 0.38 0.26 0 1.00001 
671 1 0.4 0.26 0 1.00006 
622 1 0.42 0.24 0 1.00049 
672 1 0.42 0.26 0 1.00049 
623 1 0.44 0.24 0 1.00334 
624 1 0.46 0.24 0 1.01796 
673 1 0.44 0.26 0 1.00334 
674 1 0.46 0.26 0 1.01796 
625 1 0.48 0.24 0 1.07513 
675 1 0.48 0.26 0 1.07513 
626 2 0.5 0.24 0 1.90934 
627 2 0.52 0.24 0 1.99389 
676 2 0.5 0.26 0 1.90934 
677 2 0.52 0.26 0 1.99389 
628 2 0.54 0.24 0 1.99978 
629 2 0.56 0.24 0 1.99999 
678 2 0.54 0.26 0 1.99978 
679 2 0.56 0.26 0 1.99999 
630 2 0.58 0.24 0 2 
680 2 0.58 0.26 0 2 
631 2 0.6 0.24 0 2 
632 2 0.62 0.24 0 2 
681 2 0.6 0.26 0 2 
682 2 0.62 0.26 0 2 
633 2 0.64 0.24 0 2 
683 2 0.64 0.26 0 2 
634 2 0.66 0.24 0 2 
635 2 0.68 0.24 0 2 
684 2 0.66 0.26 0 2 
685 2 0.68 0.26 0 2 
636 2 0.7 0.24 0 2 
686 2 0.7 0.26 0 2 
637 2 0.72 0.24 0 2 
638 2 0.74 0.24 0 2 
687 2 0.72 0.26 0 2 
688 2 0.74 0.26 0 2 
639 2 0.76 0.24 0 2 