ITEM: TIMESTEP
0
ITEM: NUMBER OF ATOMS
900
ITEM: BOX BOUNDS pp pp pp
0 1.2
0 1.2
-0.012 0.012
ITEM: ATOMS id type x y z vx vy vz c_rho_peratom v_dAsphx v_dA v_dA_err 
1 1 0.02 0.02 0 0 0 0 1.00026 5.19884 5.2073 0.00112259 
2 1 0.06 0.02 0 0 0 0 1.00026 4.97163 4.97972 0.00107353 
3 1 0.1 0.02 0 0 0 0 1.00026 4.52713 4.5345 0.000977548 
4 1 0.14 0.02 0 0 0 0 1.00026 3.88477 3.8911 0.000838844 
5 1 0.18 0.02 0 0 0 0 1.00026 3.07263 3.07764 0.000663478 
6 1 0.22 0.02 0 0 0 0 1.00026 2.12621 2.12967 0.000459114 
7 1 0.26 0.02 0 0 0 0 1.00026 1.08685 1.08862 0.000234686 
8 1 0.3 0.02 0 0 0 0 1.00026 2.52454e-14 -8.42011e-16 3.45995e-15 
9 1 0.34 0.02 0 0 0 0 1.00026 -1.08685 -1.08862 0.000234686 
10 1 0.38 0.02 0 0 0 0 1.00026 -2.12621 -2.12967 0.000459114 
11 1 0.42 0.02 0 0 0 0 1.00026 -3.07263 -3.07764 0.000663478 
12 1 0.46 0.02 0 0 0 0 1.00026 -3.88477 -3.8911 0.000838844 
13 1 0.5 0.02 0 0 0 0 1.00026 -4.52713 -4.5345 0.000977548 
14 1 0.54 0.02 0 0 0 0 1.00026 -4.97163 -4.97972 0.00107353 
15 1 0.58 0.02 0 0 0 0 1.00026 -5.19884 -5.2073 0.00112259 
16 1 0.62 0.02 0 0 0 0 1.00026 -5.19884 -5.2073 0.00112259 
17 1 0.66 0.02 0 0 0 0 1.00026 -4.97163 -4.97972 0.00107353 
18 1 0.7 0.02 0 0 0 0 1.00026 -4.52713 -4.5345 0.000977548 
19 1 0.74 0.02 0 0 0 0 1.00026 -3.88477 -3.8911 0.000838844 
20 1 0.78 0.02 0 0 0 0 1.00026 -3.07263 -3.07764 0.000663478 
21 1 0.82 0.02 0 0 0 0 1.00026 -2.12621 -2.12967 0.000459114 
22 1 0.86 0.02 0 0 0 0 1.00026 -1.08685 -1.08862 0.000234686 
23 1 0.9 0.02 0 0 0 0 1.00026 3.22919e-15 -9.61835e-16 5.55852e-16 
24 1 0.94 0.02 0 0 0 0 1.00026 1.08685 1.08862 0.000234686 
25 1 0.98 0.02 0 0 0 0 1.00026 2.12621 2.12967 0.000459114 
26 1 1.02 0.02 0 0 0 0 1.00026 3.07263 3.07764 0.000663478 
27 1 1.06 0.02 0 0 0 0 1.00026 3.88477 3.8911 0.000838844 
28 1 1.1 0.02 0 0 0 0 1.00026 4.52713 4.5345 0.000977548 
29 1 1.14 0.02 0 0 0 0 1.00026 4.97163 4.97972 0.00107353 
30 1 1.18 0.02 0 0 0 0 1.00026 5.19884 5.2073 0.00112259 
31 1 0.02 0.06 0 0 0 0 1.00026 5.19884 5.2073 0.00112259 
32 1 0.06 0.06 0 0 0 0 1.00026 4.97163 4.97972 0.00107353 
33 1 0.1 0.06 0 0 0 0 1.00026 4.52713 4.5345 0.000977548 
34 1 0.14 0.06 0 0 0 0 1.00026 3.88477 3.8911 0.000838844 
35 1 0.18 0.06 0 0 0 0 1.00026 3.07263 3.07764 0.000663478 
36 1 0.22 0.06 0 0 0 0 1.00026 2.12621 2.12967 0.000459114 
37 1 0.26 0.06 0 0 0 0 1.00026 1.08685 1.08862 0.000234686 
38 1 0.3 0.06 0 0 0 0 1.00026 2.21784e-14 -8.42011e-16 3.05318e-15 
39 1 0.34 0.06 0 0 0 0 1.00026 -1.08685 -1.08862 0.000234686 
40 1 0.38 0.06 0 0 0 0 1.00026 -2.12621 -2.12967 0.000459114 
41 1 0.42 0.06 0 0 0 0 1.00026 -3.07263 -3.07764 0.000663478 
42 1 0.46 0.06 0 0 0 0 1.00026 -3.88477 -3.8911 0.000838844 
43 1 0.5 0.06 0 0 0 0 1.00026 -4.52713 -4.5345 0.000977548 
44 1 0.54 0.06 0 0 0 0 1.00026 -4.97163 -4.97972 0.00107353 
45 1 0.58 0.06 0 0 0 0 1.00026 -5.19884 -5.2073 0.00112259 
46 1 0.62 0.06 0 0 0 0 1.00026 -5.19884 -5.2073 0.00112259 
47 1 0.66 0.06 0 0 0 0 1.00026 -4.97163 -4.97972 0.00107353 
48 1 0.7 0.06 0 0 0 0 1.00026 -4.52713 -4.5345 0.000977548 
49 1 0.74 0.06 0 0 0 0 1.00026 -3.88477 -3.8911 0.000838844 
50 1 0.78 0.06 0 0 0 0 1.00026 -3.07263 -3.07764 0.000663478 
51 1 0.82 0.06 0 0 0 0 1.00026 -2.12621 -2.12967 0.000459114 
52 1 0.86 0.06 0 0 0 0 1.00026 -1.08685 -1.08862 0.000234686 
53 1 0.9 0.06 0 0 0 0 1.00026 1.10263e-15 -9.61835e-16 2.73809e-16 
54 1 0.94 0.06 0 0 0 0 1.00026 1.08685 1.08862 0.000234686 
55 1 0.98 0.06 0 0 0 0 1.00026 2.12621 2.12967 0.000459114 
56 1 1.02 0.06 0 0 0 0 1.00026 3.07263 3.07764 0.000663478 
57 1 1.06 0.06 0 0 0 0 1.00026 3.88477 3.8911 0.000838844 
58 1 1.1 0.06 0 0 0 0 1.00026 4.52713 4.5345 0.000977548 
59 1 1.14 0.06 0 0 0 0 1.00026 4.97163 4.97972 0.00107353 
60 1 1.18 0.06 0 0 0 0 1.00026 5.19884 5.2073 0.00112259 
61 1 0.02 0.1 0 0 0 0 1.00026 5.19884 5.2073 0.00112259 
62 1 0.06 0.1 0 0 0 0 1.00026 4.97163 4.97972 0.00107353 
63 1 0.1 0.1 0 0 0 0 1.00026 4.52713 4.5345 0.000977548 
64 1 0.14 0.1 0 0 0 0 1.00026 3.88477 3.8911 0.000838844 
65 1 0.18 0.1 0 0 0 0 1.00026 3.07263 3.07764 0.000663478 
66 1 0.22 0.1 0 0 0 0 1.00026 2.12621 2.12967 0.000459114 
67 1 0.26 0.1 0 0 0 0 1.00026 1.08685 1.08862 0.000234686 
68 1 0.3 0.1 0 0 0 0 1.00026 2.46001e-14 -8.42011e-16 3.37437e-15 
69 1 0.34 0.1 0 0 0 0 1.00026 -1.08685 -1.08862 0.000234686 
70 1 0.38 0.1 0 0 0 0 1.00026 -2.12621 -2.12967 0.000459114 
71 1 0.42 0.1 0 0 0 0 1.00026 -3.07263 -3.07764 0.000663478 
72 1 0.46 0.1 0 0 0 0 1.00026 -3.88477 -3.8911 0.000838844 
73 1 0.5 0.1 0 0 0 0 1.00026 -4.52713 -4.5345 0.000977548 
74 1 0.54 0.1 0 0 0 0 1.00026 -4.97163 -4.97972 0.00107353 
75 1 0.58 0.1 0 0 0 0 1.00026 -5.19884 -5.2073 0.00112259 
76 1 0.62 0.1 0 0 0 0 1.00026 -5.19884 -5.2073 0.00112259 
77 1 0.66 0.1 0 0 0 0 1.00026 -4.97163 -4.97972 0.00107353 
78 1 0.7 0.1 0 0 0 0 1.00026 -4.52713 -4.5345 0.000977548 
79 1 0.74 0.1 0 0 0 0 1.00026 -3.88477 -3.8911 0.000838844 
80 1 0.78 0.1 0 0 0 0 1.00026 -3.07263 -3.07764 0.000663478 
81 1 0.82 0.1 0 0 0 0 1.00026 -2.12621 -2.12967 0.000459114 
82 1 0.86 0.1 0 0 0 0 1.00026 -1.08685 -1.08862 0.000234686 
83 1 0.9 0.1 0 0 0 0 1.00026 2.34968e-15 -9.61835e-16 4.39204e-16 
84 1 0.94 0.1 0 0 0 0 1.00026 1.08685 1.08862 0.000234686 
85 1 0.98 0.1 0 0 0 0 1.00026 2.12621 2.12967 0.000459114 
86 1 1.02 0.1 0 0 0 0 1.00026 3.07263 3.07764 0.000663478 
87 1 1.06 0.1 0 0 0 0 1.00026 3.88477 3.8911 0.000838844 
88 1 1.1 0.1 0 0 0 0 1.00026 4.52713 4.5345 0.000977548 
89 1 1.14 0.1 0 0 0 0 1.00026 4.97163 4.97972 0.00107353 
90 1 1.18 0.1 0 0 0 0 1.00026 5.19884 5.2073 0.00112259 
91 1 0.02 0.14 0 0 0 0 1.00026 5.19884 5.2073 0.00112259 
92 1 0.06 0.14 0 0 0 0 1.00026 4.97163 4.97972 0.00107353 
93 1 0.1 0.14 0 0 0 0 1.00026 4.52713 4.5345 0.000977548 
94 1 0.14 0.14 0 0 0 0 1.00026 3.88477 3.8911 0.000838844 
95 1 0.18 0.14 0 0 0 0 1.00026 3.07263 3.07764 0.000663478 
96 1 0.22 0.14 0 0 0 0 1.00026 2.12621 2.12967 0.000459114 
97 1 0.26 0.14 0 0 0 0 1.00026 1.08685 1.08862 0.000234686 
98 1 0.3 0.14 0 0 0 0 1.00026 2.40552e-14 -8.42011e-16 3.30209e-15 
99 1 0.34 0.14 0 0 0 0 1.00026 -1.08685 -1.08862 0.000234686 
100 1 0.38 0.14 0 0 0 0 1.00026 -2.12621 -2.12967 0.000459114 
101 1 0.42 0.14 0 0 0 0 1.00026 -3.07263 -3.07764 0.000663478 
102 1 0.46 0.14 0 0 0 0 1.00026 -3.88477 -3.8911 0.000838844 
103 1 0.5 0.14 0 0 0 0 1.00026 -4.52713 -4.5345 0.000977548 
104 1 0.54 0.14 0 0 0 0 1.00026 -4.97163 -4.97972 0.00107353 
105 1 0.58 0.14 0 0 0 0 1.00026 -5.19884 -5.2073 0.00112259 
106 1 0.62 0.14 0 0 0 0 1.00026 -5.19884 -5.2073 0.00112259 
107 1 0.66 0.14 0 0 0 0 1.00026 -4.97163 -4.97972 0.00107353 
108 1 0.7 0.14 0 0 0 0 1.00026 -4.52713 -4.5345 0.000977548 
109 1 0.74 0.14 0 0 0 0 1.00026 -3.88477 -3.8911 0.000838844 
110 1 0.78 0.14 0 0 0 0 1.00026 -3.07263 -3.07764 0.000663478 
111 1 0.82 0.14 0 0 0 0 1.00026 -2.12621 -2.12967 0.000459114 
112 1 0.86 0.14 0 0 0 0 1.00026 -1.08685 -1.08862 0.000234686 
113 1 0.9 0.14 0 0 0 0 1.00026 -8.05367e-15 -9.61835e-16 9.40584e-16 
114 1 0.94 0.14 0 0 0 0 1.00026 1.08685 1.08862 0.000234686 
115 1 0.98 0.14 0 0 0 0 1.00026 2.12621 2.12967 0.000459114 
116 1 1.02 0.14 0 0 0 0 1.00026 3.07263 3.07764 0.000663478 
117 1 1.06 0.14 0 0 0 0 1.00026 3.88477 3.8911 0.000838844 
118 1 1.1 0.14 0 0 0 0 1.00026 4.52713 4.5345 0.000977548 
119 1 1.14 0.14 0 0 0 0 1.00026 4.97163 4.97972 0.00107353 
120 1 1.18 0.14 0 0 0 0 1.00026 5.19884 5.2073 0.00112259 
121 1 0.02 0.18 0 0 0 0 1.00026 5.19884 5.2073 0.00112259 
122 1 0.06 0.18 0 0 0 0 1.00026 4.97163 4.97972 0.00107353 
123 1 0.1 0.18 0 0 0 0 1.00026 4.52713 4.5345 0.000977548 
124 1 0.14 0.18 0 0 0 0 1.00026 3.88477 3.8911 0.000838844 
125 1 0.18 0.18 0 0 0 0 1.00026 3.07263 3.07764 0.000663478 
126 1 0.22 0.18 0 0 0 0 1.00026 2.12621 2.12967 0.000459114 
127 1 0.26 0.18 0 0 0 0 1.00026 1.08685 1.08862 0.000234686 
128 1 0.3 0.18 0 0 0 0 1.00026 2.37397e-14 -8.42011e-16 3.26025e-15 
129 1 0.34 0.18 0 0 0 0 1.00026 -1.08685 -1.08862 0.000234686 
130 1 0.38 0.18 0 0 0 0 1.00026 -2.12621 -2.12967 0.000459114 
131 1 0.42 0.18 0 0 0 0 1.00026 -3.07263 -3.07764 0.000663478 
132 1 0.46 0.18 0 0 0 0 1.00026 -3.88477 -3.8911 0.000838844 
133 1 0.5 0.18 0 0 0 0 1.00026 -4.52713 -4.5345 0.000977548 
134 1 0.54 0.18 0 0 0 0 1.00026 -4.97163 -4.97972 0.00107353 
135 1 0.58 0.18 0 0 0 0 1.00026 -5.19884 -5.2073 0.00112259 
136 1 0.62 0.18 0 0 0 0 1.00026 -5.19884 -5.2073 0.00112259 
137 1 0.66 0.18 0 0 0 0 1.00026 -4.97163 -4.97972 0.00107353 
138 1 0.7 0.18 0 0 0 0 1.00026 -4.52713 -4.5345 0.000977548 
139 1 0.74 0.18 0 0 0 0 1.00026 -3.88477 -3.8911 0.000838844 
140 1 0.78 0.18 0 0 0 0 1.00026 -3.07263 -3.07764 0.000663478 
141 1 0.82 0.18 0 0 0 0 1.00026 -2.12621 -2.12967 0.000459114 
142 1 0.86 0.18 0 0 0 0 1.00026 -1.08685 -1.08862 0.000234686 
143 1 0.9 0.18 0 0 0 0 1.00026 -6.33608e-15 -9.61835e-16 7.12781e-16 
144 1 0.94 0.18 0 0 0 0 1.00026 1.08685 1.08862 0.000234686 
145 1 0.98 0.18 0 0 0 0 1.00026 2.12621 2.12967 0.000459114 
146 1 1.02 0.18 0 0 0 0 1.00026 3.07263 3.07764 0.000663478 
147 1 1.06 0.18 0 0 0 0 1.00026 3.88477 3.8911 0.000838844 
148 1 1.1 0.18 0 0 0 0 1.00026 4.52713 4.5345 0.000977548 
149 1 1.14 0.18 0 0 0 0 1.00026 4.97163 4.97972 0.00107353 
150 1 1.18 0.18 0 0 0 0 1.00026 5.19884 5.2073 0.00112259 
151 1 0.02 0.22 0 0 0 0 1.00026 5.19884 5.2073 0.00112259 
152 1 0.06 0.22 0 0 0 0 1.00026 4.97163 4.97972 0.00107353 
153 1 0.1 0.22 0 0 0 0 1.00026 4.52713 4.5345 0.000977548 
154 1 0.14 0.22 0 0 0 0 1.00026 3.88477 3.8911 0.000838844 
155 1 0.18 0.22 0 0 0 0 1.00026 3.07263 3.07764 0.000663478 
156 1 0.22 0.22 0 0 0 0 1.00026 2.12621 2.12967 0.000459114 
157 1 0.26 0.22 0 0 0 0 1.00026 1.08685 1.08862 0.000234686 
158 1 0.3 0.22 0 0 0 0 1.00026 2.10309e-14 -8.42011e-16 2.90099e-15 
159 1 0.34 0.22 0 0 0 0 1.00026 -1.08685 -1.08862 0.000234686 
160 1 0.38 0.22 0 0 0 0 1.00026 -2.12621 -2.12967 0.000459114 
161 1 0.42 0.22 0 0 0 0 1.00026 -3.07263 -3.07764 0.000663478 
162 1 0.46 0.22 0 0 0 0 1.00026 -3.88477 -3.8911 0.000838844 
163 1 0.5 0.22 0 0 0 0 1.00026 -4.52713 -4.5345 0.000977548 
164 1 0.54 0.22 0 0 0 0 1.00026 -4.97163 -4.97972 0.00107353 
165 1 0.58 0.22 0 0 0 0 1.00026 -5.19884 -5.2073 0.00112259 
166 1 0.62 0.22 0 0 0 0 1.00026 -5.19884 -5.2073 0.00112259 
167 1 0.66 0.22 0 0 0 0 1.00026 -4.97163 -4.97972 0.00107353 
168 1 0.7 0.22 0 0 0 0 1.00026 -4.52713 -4.5345 0.000977548 
169 1 0.74 0.22 0 0 0 0 1.00026 -3.88477 -3.8911 0.000838844 
170 1 0.78 0.22 0 0 0 0 1.00026 -3.07263 -3.07764 0.000663478 
171 1 0.82 0.22 0 0 0 0 1.00026 -2.12621 -2.12967 0.000459114 
172 1 0.86 0.22 0 0 0 0 1.00026 -1.08685 -1.08862 0.000234686 
173 1 0.9 0.22 0 0 0 0 1.00026 -5.25621e-16 -9.61835e-16 5.78547e-17 
174 1 0.94 0.22 0 0 0 0 1.00026 1.08685 1.08862 0.000234686 
175 1 0.98 0.22 0 0 0 0 1.00026 2.12621 2.12967 0.000459114 
176 1 1.02 0.22 0 0 0 0 1.00026 3.07263 3.07764 0.000663478 
177 1 1.06 0.22 0 0 0 0 1.00026 3.88477 3.8911 0.000838844 
178 1 1.1 0.22 0 0 0 0 1.00026 4.52713 4.5345 0.000977548 
179 1 1.14 0.22 0 0 0 0 1.00026 4.97163 4.97972 0.00107353 
180 1 1.18 0.22 0 0 0 0 1.00026 5.19884 5.2073 0.00112259 
181 1 0.02 0.26 0 0 0 0 1.00026 5.19884 5.2073 0.00112259 
182 1 0.06 0.26 0 0 0 0 1.00026 4.97163 4.97972 0.00107353 
183 1 0.1 0.26 0 0 0 0 1.00026 4.52713 4.5345 0.000977548 
184 1 0.14 0.26 0 0 0 0 1.00026 3.88477 3.8911 0.000838844 
185 1 0.18 0.26 0 0 0 0 1.00026 3.07263 3.07764 0.000663478 
186 1 0.22 0.26 0 0 0 0 1.00026 2.12621 2.12967 0.000459114 
187 1 0.26 0.26 0 0 0 0 1.00026 1.08685 1.08862 0.000234686 
188 1 0.3 0.26 0 0 0 0 1.00026 1.64777e-14 -8.42011e-16 2.2971e-15 
189 1 0.34 0.26 0 0 0 0 1.00026 -1.08685 -1.08862 0.000234686 
190 1 0.38 0.26 0 0 0 0 1.00026 -2.12621 -2.12967 0.000459114 
191 1 0.42 0.26 0 0 0 0 1.00026 -3.07263 -3.07764 0.000663478 
192 1 0.46 0.26 0 0 0 0 1.00026 -3.88477 -3.8911 0.000838844 
193 1 0.5 0.26 0 0 0 0 1.00026 -4.52713 -4.5345 0.000977548 
194 1 0.54 0.26 0 0 0 0 1.00026 -4.97163 -4.97972 0.00107353 
195 1 0.58 0.26 0 0 0 0 1.00026 -5.19884 -5.2073 0.00112259 
196 1 0.62 0.26 0 0 0 0 1.00026 -5.19884 -5.2073 0.00112259 
197 1 0.66 0.26 0 0 0 0 1.00026 -4.97163 -4.97972 0.00107353 
198 1 0.7 0.26 0 0 0 0 1.00026 -4.52713 -4.5345 0.000977548 
199 1 0.74 0.26 0 0 0 0 1.00026 -3.88477 -3.8911 0.000838844 
200 1 0.78 0.26 0 0 0 0 1.00026 -3.07263 -3.07764 0.000663478 
201 1 0.82 0.26 0 0 0 0 1.00026 -2.12621 -2.12967 0.000459114 
202 1 0.86 0.26 0 0 0 0 1.00026 -1.08685 -1.08862 0.000234686 
203 1 0.9 0.26 0 0 0 0 1.00026 1.43809e-15 -9.61835e-16 3.18299e-16 
204 1 0.94 0.26 0 0 0 0 1.00026 1.08685 1.08862 0.000234686 
205 1 0.98 0.26 0 0 0 0 1.00026 2.12621 2.12967 0.000459114 
206 1 1.02 0.26 0 0 0 0 1.00026 3.07263 3.07764 0.000663478 
207 1 1.06 0.26 0 0 0 0 1.00026 3.88477 3.8911 0.000838844 
208 1 1.1 0.26 0 0 0 0 1.00026 4.52713 4.5345 0.000977548 
209 1 1.14 0.26 0 0 0 0 1.00026 4.97163 4.97972 0.00107353 
210 1 1.18 0.26 0 0 0 0 1.00026 5.19884 5.2073 0.00112259 
211 1 0.02 0.3 0 0 0 0 1.00026 5.19884 5.2073 0.00112259 
212 1 0.06 0.3 0 0 0 0 1.00026 4.97163 4.97972 0.00107353 
213 1 0.1 0.3 0 0 0 0 1.00026 4.52713 4.5345 0.000977548 
214 1 0.14 0.3 0 0 0 0 1.00026 3.88477 3.8911 0.000838844 
215 1 0.18 0.3 0 0 0 0 1.00026 3.07263 3.07764 0.000663478 
216 1 0.22 0.3 0 0 0 0 1.00026 2.12621 2.12967 0.000459114 
217 1 0.26 0.3 0 0 0 0 1.00026 1.08685 1.08862 0.000234686 
218 1 0.3 0.3 0 0 0 0 1.00026 2.57806e-14 -8.42011e-16 3.53093e-15 
219 1 0.34 0.3 0 0 0 0 1.00026 -1.08685 -1.08862 0.000234686 
220 1 0.38 0.3 0 0 0 0 1.00026 -2.12621 -2.12967 0.000459114 
221 1 0.42 0.3 0 0 0 0 1.00026 -3.07263 -3.07764 0.000663478 
222 1 0.46 0.3 0 0 0 0 1.00026 -3.88477 -3.8911 0.000838844 
223 1 0.5 0.3 0 0 0 0 1.00026 -4.52713 -4.5345 0.000977548 
224 1 0.54 0.3 0 0 0 0 1.00026 -4.97163 -4.97972 0.00107353 
225 1 0.58 0.3 0 0 0 0 1.00026 -5.19884 -5.2073 0.00112259 
226 1 0.62 0.3 0 0 0 0 1.00026 -5.19884 -5.2073 0.00112259 
227 1 0.66 0.3 0 0 0 0 1.00026 -4.97163 -4.97972 0.00107353 
228 1 0.7 0.3 0 0 0 0 1.00026 -4.52713 -4.5345 0.000977548 
229 1 0.74 0.3 0 0 0 0 1.00026 -3.88477 -3.8911 0.000838844 
230 1 0.78 0.3 0 0 0 0 1.00026 -3.07263 -3.07764 0.000663478 
231 1 0.82 0.3 0 0 0 0 1.00026 -2.12621 -2.12967 0.000459114 
232 1 0.86 0.3 0 0 0 0 1.00026 -1.08685 -1.08862 0.000234686 
233 1 0.9 0.3 0 0 0 0 1.00026 -4.88758e-15 -9.61835e-16 5.20669e-16 
234 1 0.94 0.3 0 0 0 0 1.00026 1.08685 1.08862 0.000234686 
235 1 0.98 0.3 0 0 0 0 1.00026 2.12621 2.12967 0.000459114 
236 1 1.02 0.3 0 0 0 0 1.00026 3.07263 3.07764 0.000663478 
237 1 1.06 0.3 0 0 0 0 1.00026 3.88477 3.8911 0.000838844 
238 1 1.1 0.3 0 0 0 0 1.00026 4.52713 4.5345 0.000977548 
239 1 1.14 0.3 0 0 0 0 1.00026 4.97163 4.97972 0.00107353 
240 1 1.18 0.3 0 0 0 0 1.00026 5.19884 5.2073 0.00112259 
241 1 0.02 0.34 0 0 0 0 1.00026 5.19884 5.2073 0.00112259 
242 1 0.06 0.34 0 0 0 0 1.00026 4.97163 4.97972 0.00107353 
243 1 0.1 0.34 0 0 0 0 1.00026 4.52713 4.5345 0.000977548 
244 1 0.14 0.34 0 0 0 0 1.00026 3.88477 3.8911 0.000838844 
245 1 0.18 0.34 0 0 0 0 1.00026 3.07263 3.07764 0.000663478 
246 1 0.22 0.34 0 0 0 0 1.00026 2.12621 2.12967 0.000459114 
247 1 0.26 0.34 0 0 0 0 1.00026 1.08685 1.08862 0.000234686 
248 1 0.3 0.34 0 0 0 0 1.00026 2.48696e-14 -8.42011e-16 3.41011e-15 
249 1 0.34 0.34 0 0 0 0 1.00026 -1.08685 -1.08862 0.000234686 
250 1 0.38 0.34 0 0 0 0 1.00026 -2.12621 -2.12967 0.000459114 
251 1 0.42 0.34 0 0 0 0 1.00026 -3.07263 -3.07764 0.000663478 
252 1 0.46 0.34 0 0 0 0 1.00026 -3.88477 -3.8911 0.000838844 
253 1 0.5 0.34 0 0 0 0 1.00026 -4.52713 -4.5345 0.000977548 
254 1 0.54 0.34 0 0 0 0 1.00026 -4.97163 -4.97972 0.00107353 
255 1 0.58 0.34 0 0 0 0 1.00026 -5.19884 -5.2073 0.00112259 
256 1 0.62 0.34 0 0 0 0 1.00026 -5.19884 -5.2073 0.00112259 
257 1 0.66 0.34 0 0 0 0 1.00026 -4.97163 -4.97972 0.00107353 
258 1 0.7 0.34 0 0 0 0 1.00026 -4.52713 -4.5345 0.000977548 
259 1 0.74 0.34 0 0 0 0 1.00026 -3.88477 -3.8911 0.000838844 
260 1 0.78 0.34 0 0 0 0 1.00026 -3.07263 -3.07764 0.000663478 
261 1 0.82 0.34 0 0 0 0 1.00026 -2.12621 -2.12967 0.000459114 
262 1 0.86 0.34 0 0 0 0 1.00026 -1.08685 -1.08862 0.000234686 
263 1 0.9 0.34 0 0 0 0 1.00026 1.34246e-15 -9.61835e-16 3.05617e-16 
264 1 0.94 0.34 0 0 0 0 1.00026 1.08685 1.08862 0.000234686 
265 1 0.98 0.34 0 0 0 0 1.00026 2.12621 2.12967 0.000459114 
266 1 1.02 0.34 0 0 0 0 1.00026 3.07263 3.07764 0.000663478 
267 1 1.06 0.34 0 0 0 0 1.00026 3.88477 3.8911 0.000838844 
268 1 1.1 0.34 0 0 0 0 1.00026 4.52713 4.5345 0.000977548 
269 1 1.14 0.34 0 0 0 0 1.00026 4.97163 4.97972 0.00107353 
270 1 1.18 0.34 0 0 0 0 1.00026 5.19884 5.2073 0.00112259 
271 1 0.02 0.38 0 0 0 0 1.00026 5.19884 5.2073 0.00112259 
272 1 0.06 0.38 0 0 0 0 1.00026 4.97163 4.97972 0.00107353 
273 1 0.1 0.38 0 0 0 0 1.00026 4.52713 4.5345 0.000977548 
274 1 0.14 0.38 0 0 0 0 1.00026 3.88477 3.8911 0.000838844 
275 1 0.18 0.38 0 0 0 0 1.00026 3.07263 3.07764 0.000663478 
276 1 0.22 0.38 0 0 0 0 1.00026 2.12621 2.12967 0.000459114 
277 1 0.26 0.38 0 0 0 0 1.00026 1.08685 1.08862 0.000234686 
278 1 0.3 0.38 0 0 0 0 1.00026 2.02833e-14 -8.42011e-16 2.80183e-15 
279 1 0.34 0.38 0 0 0 0 1.00026 -1.08685 -1.08862 0.000234686 
280 1 0.38 0.38 0 0 0 0 1.00026 -2.12621 -2.12967 0.000459114 
281 1 0.42 0.38 0 0 0 0 1.00026 -3.07263 -3.07764 0.000663478 
282 1 0.46 0.38 0 0 0 0 1.00026 -3.88477 -3.8911 0.000838844 
283 1 0.5 0.38 0 0 0 0 1.00026 -4.52713 -4.5345 0.000977548 
284 1 0.54 0.38 0 0 0 0 1.00026 -4.97163 -4.97972 0.00107353 
285 1 0.58 0.38 0 0 0 0 1.00026 -5.19884 -5.2073 0.00112259 
286 1 0.62 0.38 0 0 0 0 1.00026 -5.19884 -5.2073 0.00112259 
287 1 0.66 0.38 0 0 0 0 1.00026 -4.97163 -4.97972 0.00107353 
288 1 0.7 0.38 0 0 0 0 1.00026 -4.52713 -4.5345 0.000977548 
289 1 0.74 0.38 0 0 0 0 1.00026 -3.88477 -3.8911 0.000838844 
290 1 0.78 0.38 0 0 0 0 1.00026 -3.07263 -3.07764 0.000663478 
291 1 0.82 0.38 0 0 0 0 1.00026 -2.12621 -2.12967 0.000459114 
292 1 0.86 0.38 0 0 0 0 1.00026 -1.08685 -1.08862 0.000234686 
293 1 0.9 0.38 0 0 0 0 1.00026 -1.32533e-15 -9.61835e-16 4.82098e-17 
294 1 0.94 0.38 0 0 0 0 1.00026 1.08685 1.08862 0.000234686 
295 1 0.98 0.38 0 0 0 0 1.00026 2.12621 2.12967 0.000459114 
296 1 1.02 0.38 0 0 0 0 1.00026 3.07263 3.07764 0.000663478 
297 1 1.06 0.38 0 0 0 0 1.00026 3.88477 3.8911 0.000838844 
298 1 1.1 0.38 0 0 0 0 1.00026 4.52713 4.5345 0.000977548 
299 1 1.14 0.38 0 0 0 0 1.00026 4.97163 4.97972 0.00107353 
300 1 1.18 0.38 0 0 0 0 1.00026 5.19884 5.2073 0.00112259 
301 1 0.02 0.42 0 0 0 0 1.00026 5.19884 5.2073 0.00112259 
302 1 0.06 0.42 0 0 0 0 1.00026 4.97163 4.97972 0.00107353 
303 1 0.1 0.42 0 0 0 0 1.00026 4.52713 4.5345 0.000977548 
304 1 0.14 0.42 0 0 0 0 1.00026 3.88477 3.8911 0.000838844 
305 1 0.18 0.42 0 0 0 0 1.00026 3.07263 3.07764 0.000663478 
306 1 0.22 0.42 0 0 0 0 1.00026 2.12621 2.12967 0.000459114 
307 1 0.26 0.42 0 0 0 0 1.00026 1.08685 1.08862 0.000234686 
308 1 0.3 0.42 0 0 0 0 1.00026 2.3195e-14 -8.42011e-16 3.18801e-15 
309 1 0.34 0.42 0 0 0 0 1.00026 -1.08685 -1.08862 0.000234686 
310 1 0.38 0.42 0 0 0 0 1.00026 -2.12621 -2.12967 0.000459114 
311 1 0.42 0.42 0 0 0 0 1.00026 -3.07263 -3.07764 0.000663478 
312 1 0.46 0.42 0 0 0 0 1.00026 -3.88477 -3.8911 0.000838844 
313 1 0.5 0.42 0 0 0 0 1.00026 -4.52713 -4.5345 0.000977548 
314 1 0.54 0.42 0 0 0 0 1.00026 -4.97163 -4.97972 0.00107353 
315 1 0.58 0.42 0 0 0 0 1.00026 -5.19884 -5.2073 0.00112259 
316 1 0.62 0.42 0 0 0 0 1.00026 -5.19884 -5.2073 0.00112259 
317 1 0.66 0.42 0 0 0 0 1.00026 -4.97163 -4.97972 0.00107353 
318 1 0.7 0.42 0 0 0 0 1.00026 -4.52713 -4.5345 0.000977548 
319 1 0.74 0.42 0 0 0 0 1.00026 -3.88477 -3.8911 0.000838844 
320 1 0.78 0.42 0 0 0 0 1.00026 -3.07263 -3.07764 0.000663478 
321 1 0.82 0.42 0 0 0 0 1.00026 -2.12621 -2.12967 0.000459114 
322 1 0.86 0.42 0 0 0 0 1.00026 -1.08685 -1.08862 0.000234686 
323 1 0.9 0.42 0 0 0 0 1.00026 -1.42421e-15 -9.61835e-16 6.13241e-17 
324 1 0.94 0.42 0 0 0 0 1.00026 1.08685 1.08862 0.000234686 
325 1 0.98 0.42 0 0 0 0 1.00026 2.12621 2.12967 0.000459114 
326 1 1.02 0.42 0 0 0 0 1.00026 3.07263 3.07764 0.000663478 
327 1 1.06 0.42 0 0 0 0 1.00026 3.88477 3.8911 0.000838844 
328 1 1.1 0.42 0 0 0 0 1.00026 4.52713 4.5345 0.000977548 
329 1 1.14 0.42 0 0 0 0 1.00026 4.97163 4.97972 0.00107353 
330 1 1.18 0.42 0 0 0 0 1.00026 5.19884 5.2073 0.00112259 
331 1 0.02 0.46 0 0 0 0 1.00026 5.19884 5.2073 0.00112259 
332 1 0.06 0.46 0 0 0 0 1.00026 4.97163 4.97972 0.00107353 
333 1 0.1 0.46 0 0 0 0 1.00026 4.52713 4.5345 0.000977548 
334 1 0.14 0.46 0 0 0 0 1.00026 3.88477 3.8911 0.000838844 
335 1 0.18 0.46 0 0 0 0 1.00026 3.07263 3.07764 0.000663478 
336 1 0.22 0.46 0 0 0 0 1.00026 2.12621 2.12967 0.000459114 
337 1 0.26 0.46 0 0 0 0 1.00026 1.08685 1.08862 0.000234686 
338 1 0.3 0.46 0 0 0 0 1.00026 2.44149e-14 -8.42011e-16 3.34981e-15 
339 1 0.34 0.46 0 0 0 0 1.00026 -1.08685 -1.08862 0.000234686 
340 1 0.38 0.46 0 0 0 0 1.00026 -2.12621 -2.12967 0.000459114 
341 1 0.42 0.46 0 0 0 0 1.00026 -3.07263 -3.07764 0.000663478 
342 1 0.46 0.46 0 0 0 0 1.00026 -3.88477 -3.8911 0.000838844 
343 1 0.5 0.46 0 0 0 0 1.00026 -4.52713 -4.5345 0.000977548 
344 1 0.54 0.46 0 0 0 0 1.00026 -4.97163 -4.97972 0.00107353 
345 1 0.58 0.46 0 0 0 0 1.00026 -5.19884 -5.2073 0.00112259 
346 1 0.62 0.46 0 0 0 0 1.00026 -5.19884 -5.2073 0.00112259 
347 1 0.66 0.46 0 0 0 0 1.00026 -4.97163 -4.97972 0.00107353 
348 1 0.7 0.46 0 0 0 0 1.00026 -4.52713 -4.5345 0.000977548 
349 1 0.74 0.46 0 0 0 0 1.00026 -3.88477 -3.8911 0.000838844 
350 1 0.78 0.46 0 0 0 0 1.00026 -3.07263 -3.07764 0.000663478 
351 1 0.82 0.46 0 0 0 0 1.00026 -2.12621 -2.12967 0.000459114 
352 1 0.86 0.46 0 0 0 0 1.00026 -1.08685 -1.08862 0.000234686 
353 1 0.9 0.46 0 0 0 0 1.00026 -1.72974e-15 -9.61835e-16 1.01846e-16 
354 1 0.94 0.46 0 0 0 0 1.00026 1.08685 1.08862 0.000234686 
355 1 0.98 0.46 0 0 0 0 1.00026 2.12621 2.12967 0.000459114 
356 1 1.02 0.46 0 0 0 0 1.00026 3.07263 3.07764 0.000663478 
357 1 1.06 0.46 0 0 0 0 1.00026 3.88477 3.8911 0.000838844 
358 1 1.1 0.46 0 0 0 0 1.00026 4.52713 4.5345 0.000977548 
359 1 1.14 0.46 0 0 0 0 1.00026 4.97163 4.97972 0.00107353 
360 1 1.18 0.46 0 0 0 0 1.00026 5.19884 5.2073 0.00112259 
361 1 0.02 0.5 0 0 0 0 1.00026 5.19884 5.2073 0.00112259 
362 1 0.06 0.5 0 0 0 0 1.00026 4.97163 4.97972 0.00107353 
363 1 0.1 0.5 0 0 0 0 1.00026 4.52713 4.5345 0.000977548 
364 1 0.14 0.5 0 0 0 0 1.00026 3.88477 3.8911 0.000838844 
365 1 0.18 0.5 0 0 0 0 1.00026 3.07263 3.07764 0.000663478 
366 1 0.22 0.5 0 0 0 0 1.00026 2.12621 2.12967 0.000459114 
367 1 0.26 0.5 0 0 0 0 1.00026 1.08685 1.08862 0.000234686 
368 1 0.3 0.5 0 0 0 0 1.00026 2.48204e-14 -8.42011e-16 3.40359e-15 
369 1 0.34 0.5 0 0 0 0 1.00026 -1.08685 -1.08862 0.000234686 
370 1 0.38 0.5 0 0 0 0 1.00026 -2.12621 -2.12967 0.000459114 
371 1 0.42 0.5 0 0 0 0 1.00026 -3.07263 -3.07764 0.000663478 
372 1 0.46 0.5 0 0 0 0 1.00026 -3.88477 -3.8911 0.000838844 
373 1 0.5 0.5 0 0 0 0 1.00026 -4.52713 -4.5345 0.000977548 
374 1 0.54 0.5 0 0 0 0 1.00026 -4.97163 -4.97972 0.00107353 
375 1 0.58 0.5 0 0 0 0 1.00026 -5.19884 -5.2073 0.00112259 
376 1 0.62 0.5 0 0 0 0 1.00026 -5.19884 -5.2073 0.00112259 
377 1 0.66 0.5 0 0 0 0 1.00026 -4.97163 -4.97972 0.00107353 
378 1 0.7 0.5 0 0 0 0 1.00026 -4.52713 -4.5345 0.000977548 
379 1 0.74 0.5 0 0 0 0 1.00026 -3.88477 -3.8911 0.000838844 
380 1 0.78 0.5 0 0 0 0 1.00026 -3.07263 -3.07764 0.000663478 
381 1 0.82 0.5 0 0 0 0 1.00026 -2.12621 -2.12967 0.000459114 
382 1 0.86 0.5 0 0 0 0 1.00026 -1.08685 -1.08862 0.000234686 
383 1 0.9 0.5 0 0 0 0 1.00026 6.18429e-16 -9.61835e-16 2.09589e-16 
384 1 0.94 0.5 0 0 0 0 1.00026 1.08685 1.08862 0.000234686 
385 1 0.98 0.5 0 0 0 0 1.00026 2.12621 2.12967 0.000459114 
386 1 1.02 0.5 0 0 0 0 1.00026 3.07263 3.07764 0.000663478 
387 1 1.06 0.5 0 0 0 0 1.00026 3.88477 3.8911 0.000838844 
388 1 1.1 0.5 0 0 0 0 1.00026 4.52713 4.5345 0.000977548 
389 1 1.14 0.5 0 0 0 0 1.00026 4.97163 4.97972 0.00107353 
390 1 1.18 0.5 0 0 0 0 1.00026 5.19884 5.2073 0.00112259 
391 1 0.02 0.54 0 0 0 0 1.00026 5.19884 5.2073 0.00112259 
392 1 0.06 0.54 0 0 0 0 1.00026 4.97163 4.97972 0.00107353 
393 1 0.1 0.54 0 0 0 0 1.00026 4.52713 4.5345 0.000977548 
394 1 0.14 0.54 0 0 0 0 1.00026 3.88477 3.8911 0.000838844 
395 1 0.18 0.54 0 0 0 0 1.00026 3.07263 3.07764 0.000663478 
396 1 0.22 0.54 0 0 0 0 1.00026 2.12621 2.12967 0.000459114 
397 1 0.26 0.54 0 0 0 0 1.00026 1.08685 1.08862 0.000234686 
398 1 0.3 0.54 0 0 0 0 1.00026 2.52222e-14 -8.42011e-16 3.45688e-15 
399 1 0.34 0.54 0 0 0 0 1.00026 -1.08685 -1.08862 0.000234686 
400 1 0.38 0.54 0 0 0 0 1.00026 -2.12621 -2.12967 0.000459114 
401 1 0.42 0.54 0 0 0 0 1.00026 -3.07263 -3.07764 0.000663478 
402 1 0.46 0.54 0 0 0 0 1.00026 -3.88477 -3.8911 0.000838844 
403 1 0.5 0.54 0 0 0 0 1.00026 -4.52713 -4.5345 0.000977548 
404 1 0.54 0.54 0 0 0 0 1.00026 -4.97163 -4.97972 0.00107353 
405 1 0.58 0.54 0 0 0 0 1.00026 -5.19884 -5.2073 0.00112259 
406 1 0.62 0.54 0 0 0 0 1.00026 -5.19884 -5.2073 0.00112259 
407 1 0.66 0.54 0 0 0 0 1.00026 -4.97163 -4.97972 0.00107353 
408 1 0.7 0.54 0 0 0 0 1.00026 -4.52713 -4.5345 0.000977548 
409 1 0.74 0.54 0 0 0 0 1.00026 -3.88477 -3.8911 0.000838844 
410 1 0.78 0.54 0 0 0 0 1.00026 -3.07263 -3.07764 0.000663478 
411 1 0.82 0.54 0 0 0 0 1.00026 -2.12621 -2.12967 0.000459114 
412 1 0.86 0.54 0 0 0 0 1.00026 -1.08685 -1.08862 0.000234686 
413 1 0.9 0.54 0 0 0 0 1.00026 9.05092e-16 -9.61835e-16 2.47609e-16 
414 1 0.94 0.54 0 0 0 0 1.00026 1.08685 1.08862 0.000234686 
415 1 0.98 0.54 0 0 0 0 1.00026 2.12621 2.12967 0.000459114 
416 1 1.02 0.54 0 0 0 0 1.00026 3.07263 3.07764 0.000663478 
417 1 1.06 0.54 0 0 0 0 1.00026 3.88477 3.8911 0.000838844 
418 1 1.1 0.54 0 0 0 0 1.00026 4.52713 4.5345 0.000977548 
419 1 1.14 0.54 0 0 0 0 1.00026 4.97163 4.97972 0.00107353 
420 1 1.18 0.54 0 0 0 0 1.00026 5.19884 5.2073 0.00112259 
421 1 0.02 0.58 0 0 0 0 1.00026 5.19884 5.2073 0.00112259 
422 1 0.06 0.58 0 0 0 0 1.00026 4.97163 4.97972 0.00107353 
423 1 0.1 0.58 0 0 0 0 1.00026 4.52713 4.5345 0.000977548 
424 1 0.14 0.58 0 0 0 0 1.00026 3.88477 3.8911 0.000838844 
425 1 0.18 0.58 0 0 0 0 1.00026 3.07263 3.07764 0.000663478 
426 1 0.22 0.58 0 0 0 0 1.00026 2.12621 2.12967 0.000459114 
427 1 0.26 0.58 0 0 0 0 1.00026 1.08685 1.08862 0.000234686 
428 1 0.3 0.58 0 0 0 0 1.00026 2.45758e-14 -8.42011e-16 3.37115e-15 
429 1 0.34 0.58 0 0 0 0 1.00026 -1.08685 -1.08862 0.000234686 
430 1 0.38 0.58 0 0 0 0 1.00026 -2.12621 -2.12967 0.000459114 
431 1 0.42 0.58 0 0 0 0 1.00026 -3.07263 -3.07764 0.000663478 
432 1 0.46 0.58 0 0 0 0 1.00026 -3.88477 -3.8911 0.000838844 
433 1 0.5 0.58 0 0 0 0 1.00026 -4.52713 -4.5345 0.000977548 
434 1 0.54 0.58 0 0 0 0 1.00026 -4.97163 -4.97972 0.00107353 
435 1 0.58 0.58 0 0 0 0 1.00026 -5.19884 -5.2073 0.00112259 
436 1 0.62 0.58 0 0 0 0 1.00026 -5.19884 -5.2073 0.00112259 
437 1 0.66 0.58 0 0 0 0 1.00026 -4.97163 -4.97972 0.00107353 
438 1 0.7 0.58 0 0 0 0 1.00026 -4.52713 -4.5345 0.000977548 
439 1 0.74 0.58 0 0 0 0 1.00026 -3.88477 -3.8911 0.000838844 
440 1 0.78 0.58 0 0 0 0 1.00026 -3.07263 -3.07764 0.000663478 
441 1 0.82 0.58 0 0 0 0 1.00026 -2.12621 -2.12967 0.000459114 
442 1 0.86 0.58 0 0 0 0 1.00026 -1.08685 -1.08862 0.000234686 
443 1 0.9 0.58 0 0 0 0 1.00026 -1.67401e-15 -9.61835e-16 9.44549e-17 
444 1 0.94 0.58 0 0 0 0 1.00026 1.08685 1.08862 0.000234686 
445 1 0.98 0.58 0 0 0 0 1.00026 2.12621 2.12967 0.000459114 
446 1 1.02 0.58 0 0 0 0 1.00026 3.07263 3.07764 0.000663478 
447 1 1.06 0.58 0 0 0 0 1.00026 3.88477 3.8911 0.000838844 
448 1 1.1 0.58 0 0 0 0 1.00026 4.52713 4.5345 0.000977548 
449 1 1.14 0.58 0 0 0 0 1.00026 4.97163 4.97972 0.00107353 
450 1 1.18 0.58 0 0 0 0 1.00026 5.19884 5.2073 0.00112259 
451 1 0.02 0.62 0 0 0 0 1.00026 5.19884 5.2073 0.00112259 
452 1 0.06 0.62 0 0 0 0 1.00026 4.97163 4.97972 0.00107353 
453 1 0.1 0.62 0 0 0 0 1.00026 4.52713 4.5345 0.000977548 
454 1 0.14 0.62 0 0 0 0 1.00026 3.88477 3.8911 0.000838844 
455 1 0.18 0.62 0 0 0 0 1.00026 3.07263 3.07764 0.000663478 
456 1 0.22 0.62 0 0 0 0 1.00026 2.12621 2.12967 0.000459114 
457 1 0.26 0.62 0 0 0 0 1.00026 1.08685 1.08862 0.000234686 
458 1 0.3 0.62 0 0 0 0 1.00026 2.4261e-14 -8.42011e-16 3.32939e-15 
459 1 0.34 0.62 0 0 0 0 1.00026 -1.08685 -1.08862 0.000234686 
460 1 0.38 0.62 0 0 0 0 1.00026 -2.12621 -2.12967 0.000459114 
461 1 0.42 0.62 0 0 0 0 1.00026 -3.07263 -3.07764 0.000663478 
462 1 0.46 0.62 0 0 0 0 1.00026 -3.88477 -3.8911 0.000838844 
463 1 0.5 0.62 0 0 0 0 1.00026 -4.52713 -4.5345 0.000977548 
464 1 0.54 0.62 0 0 0 0 1.00026 -4.97163 -4.97972 0.00107353 
465 1 0.58 0.62 0 0 0 0 1.00026 -5.19884 -5.2073 0.00112259 
466 1 0.62 0.62 0 0 0 0 1.00026 -5.19884 -5.2073 0.00112259 
467 1 0.66 0.62 0 0 0 0 1.00026 -4.97163 -4.97972 0.00107353 
468 1 0.7 0.62 0 0 0 0 1.00026 -4.52713 -4.5345 0.000977548 
469 1 0.74 0.62 0 0 0 0 1.00026 -3.88477 -3.8911 0.000838844 
470 1 0.78 0.62 0 0 0 0 1.00026 -3.07263 -3.07764 0.000663478 
471 1 0.82 0.62 0 0 0 0 1.00026 -2.12621 -2.12967 0.000459114 
472 1 0.86 0.62 0 0 0 0 1.00026 -1.08685 -1.08862 0.000234686 
473 1 0.9 0.62 0 0 0 0 1.00026 -1.94983e-15 -9.61835e-16 1.31037e-16 
474 1 0.94 0.62 0 0 0 0 1.00026 1.08685 1.08862 0.000234686 
475 1 0.98 0.62 0 0 0 0 1.00026 2.12621 2.12967 0.000459114 
476 1 1.02 0.62 0 0 0 0 1.00026 3.07263 3.07764 0.000663478 
477 1 1.06 0.62 0 0 0 0 1.00026 3.88477 3.8911 0.000838844 
478 1 1.1 0.62 0 0 0 0 1.00026 4.52713 4.5345 0.000977548 
479 1 1.14 0.62 0 0 0 0 1.00026 4.97163 4.97972 0.00107353 
480 1 1.18 0.62 0 0 0 0 1.00026 5.19884 5.2073 0.00112259 
481 1 0.02 0.66 0 0 0 0 1.00026 5.19884 5.2073 0.00112259 
482 1 0.06 0.66 0 0 0 0 1.00026 4.97163 4.97972 0.00107353 
483 1 0.1 0.66 0 0 0 0 1.00026 4.52713 4.5345 0.000977548 
484 1 0.14 0.66 0 0 0 0 1.00026 3.88477 3.8911 0.000838844 
485 1 0.18 0.66 0 0 0 0 1.00026 3.07263 3.07764 0.000663478 
486 1 0.22 0.66 0 0 0 0 1.00026 2.12621 2.12967 0.000459114 
487 1 0.26 0.66 0 0 0 0 1.00026 1.08685 1.08862 0.000234686 