LAMMPS (9 Nov 2011)
echo               both
dimension          ${ndim}
dimension          3d
units              si
atom_style         hybrid  bond meso
communicate        single vel yes
# create simulation box

#3D box
include            ${ndim}-model.lmp
include            3d-model.lmp
variable          dim equal 3
variable          kb       equal 1.3806503e-23

variable           Ly  equal 1.803e-3
variable           Lx  equal ${Ly}/50*20
variable           Lx  equal 0.001803/50*20
variable           Lz  equal ${Ly}/50*10
variable           Lz  equal 0.001803/50*10

variable           dx   equal 2.5e-5
variable           sdpd_rho equal 1000
variable           sdpd_rho0 equal 1000
variable           sdpd_c equal 3e-1
variable           sdpd_eta equal 1.5e-2
variable           sdpd_background equal 1.0
variable           sdpd_temp equal 1e9
variable           sdpd_mu  equal ${sdpd_eta}/${sdpd_rho} 
variable           sdpd_mu  equal 0.015/${sdpd_rho} 
variable           sdpd_mu  equal 0.015/1000 
variable          h equal 2.7*${dx}
variable          h equal 2.7*2.5e-05
variable          gx equal 0.612
variable          Nfreq equal 1000
variable          r0       equal 3^(1.0/${dim})*${dx}
variable          r0       equal 3^(1.0/3)*${dx}
variable          r0       equal 3^(1.0/3)*2.5e-05
variable          H        equal 50*${sdpd_temp}*${kb}/${r0}^2
variable          H        equal 50*1000000000*${kb}/${r0}^2
variable          H        equal 50*1000000000*1.3806503e-23/${r0}^2
variable          H        equal 50*1000000000*1.3806503e-23/3.605623926e-05^2
variable          sdpd_mass equal ${sdpd_rho}*${dx}^${dim}
variable          sdpd_mass equal 1000*${dx}^${dim}
variable          sdpd_mass equal 1000*2.5e-05^${dim}
variable          sdpd_mass equal 1000*2.5e-05^3
read_data           poly3d.txt
  1 = max bonds/atom
  orthogonal box = (0 0 0) to (0.0007212 0.001803 0.0003606)
  2 by 3 by 1 processor grid
  31755 atoms
  31755 velocities
  29373 bonds
  2 = max # of 1-2 neighbors
  2 = max # of 1-3 neighbors
  4 = max # of 1-4 neighbors
  6 = max # of special neighbors
#read_restart         sdpd.restart.80000
special_bonds   lj 1 1 1
  2 = max # of 1-2 neighbors
  2 = max # of 1-3 neighbors
  4 = max # of 1-4 neighbors
  6 = max # of special neighbors
bond_style fene

mass               * ${sdpd_mass}
mass               * 1.5625e-11
set                group all meso_rho ${sdpd_rho}
set                group all meso_rho 1000
  31755 settings made for meso_rho

# use Tait's EOS in combination with Morris' laminar viscosity.
# We set rho_0 = 1000 kg/m^3, c = 0.1 m/s, h = 6.5e-5 m.
# The dynamic viscosity is set to 1.0e-3 Pa s, corresponding to a kinematic viscosity of 1.0e-6 m^2/s
pair_style         hybrid/overlay sph/rhosum 1 sdpd
pair_coeff         * * sph/rhosum   ${h}
pair_coeff         * * sph/rhosum   6.75e-05
pair_coeff         * *    sdpd ${sdpd_rho0} ${sdpd_c} ${sdpd_eta} ${h} ${sdpd_temp} ${sdpd_background}
pair_coeff         * *    sdpd 1000 ${sdpd_c} ${sdpd_eta} ${h} ${sdpd_temp} ${sdpd_background}
pair_coeff         * *    sdpd 1000 0.3 ${sdpd_eta} ${h} ${sdpd_temp} ${sdpd_background}
pair_coeff         * *    sdpd 1000 0.3 0.015 ${h} ${sdpd_temp} ${sdpd_background}
pair_coeff         * *    sdpd 1000 0.3 0.015 6.75e-05 ${sdpd_temp} ${sdpd_background}
pair_coeff         * *    sdpd 1000 0.3 0.015 6.75e-05 1000000000 ${sdpd_background}
pair_coeff         * *    sdpd 1000 0.3 0.015 6.75e-05 1000000000 1

compute            rho_peratom all meso_rho/atom
compute            e_peratom all meso_e/atom
compute            ke_peratom all ke/atom
compute            esph all reduce sum c_e_peratom
compute            ke all ke
compute            sdpd_kin all temp
variable           etot equal c_ke+c_esph

# do full time integration for shear driver and fluid, but keep walls stationary
fix                integrate_fix_full all meso

# "profile" corrected temperature
compute         pTemp all temp/profile 1 1 0 y 10

# average velocity
compute vxav all reduce ave vx
variable  vx_cm atom vx-c_vxav
fix av_vx all ave/spatial 1 ${Nfreq} ${Nfreq} y center 0.01 v_vx_cm file vx.av ave running units reduced
fix av_vx all ave/spatial 1 1000 ${Nfreq} y center 0.01 v_vx_cm file vx.av ave running units reduced
fix av_vx all ave/spatial 1 1000 1000 y center 0.01 v_vx_cm file vx.av ave running units reduced

include            stress.lmp
variable dhist  equal 0.01
variable dhists equal 0.02
compute stress all stress/atom virial bond
variable stress_xx atom c_stress[1]
fix av_xx_stress all ave/spatial 1 ${Nfreq} ${Nfreq} y lower ${dhists} v_stress_xx file sxx.av units reduced ave one
fix av_xx_stress all ave/spatial 1 1000 ${Nfreq} y lower ${dhists} v_stress_xx file sxx.av units reduced ave one
fix av_xx_stress all ave/spatial 1 1000 1000 y lower ${dhists} v_stress_xx file sxx.av units reduced ave one
fix av_xx_stress all ave/spatial 1 1000 1000 y lower 0.02 v_stress_xx file sxx.av units reduced ave one

variable stress_yy atom c_stress[2]
fix av_yy_stress all ave/spatial 1 ${Nfreq} ${Nfreq} y lower ${dhists} v_stress_yy file syy.av units reduced ave one
fix av_yy_stress all ave/spatial 1 1000 ${Nfreq} y lower ${dhists} v_stress_yy file syy.av units reduced ave one
fix av_yy_stress all ave/spatial 1 1000 1000 y lower ${dhists} v_stress_yy file syy.av units reduced ave one
fix av_yy_stress all ave/spatial 1 1000 1000 y lower 0.02 v_stress_yy file syy.av units reduced ave one

variable stress_zz atom c_stress[3]
fix av_zz_stress all ave/spatial 1 ${Nfreq} ${Nfreq} y lower ${dhists} v_stress_zz file szz.av units reduced ave one
fix av_zz_stress all ave/spatial 1 1000 ${Nfreq} y lower ${dhists} v_stress_zz file szz.av units reduced ave one
fix av_zz_stress all ave/spatial 1 1000 1000 y lower ${dhists} v_stress_zz file szz.av units reduced ave one
fix av_zz_stress all ave/spatial 1 1000 1000 y lower 0.02 v_stress_zz file szz.av units reduced ave one

variable stress_xy atom c_stress[4]
fix av_xy_stress all ave/spatial 1 ${Nfreq} ${Nfreq} y lower ${dhist} v_stress_xy file sxy.av units reduced ave one
fix av_xy_stress all ave/spatial 1 1000 ${Nfreq} y lower ${dhist} v_stress_xy file sxy.av units reduced ave one
fix av_xy_stress all ave/spatial 1 1000 1000 y lower ${dhist} v_stress_xy file sxy.av units reduced ave one
fix av_xy_stress all ave/spatial 1 1000 1000 y lower 0.01 v_stress_xy file sxy.av units reduced ave one

variable stress_xxyy atom c_stress[1]-c_stress[2]
fix av_xxyy_stress all ave/spatial 1 ${Nfreq} ${Nfreq} y lower ${dhists} v_stress_xxyy file sxxyy.av units reduced ave one
fix av_xxyy_stress all ave/spatial 1 1000 ${Nfreq} y lower ${dhists} v_stress_xxyy file sxxyy.av units reduced ave one
fix av_xxyy_stress all ave/spatial 1 1000 1000 y lower ${dhists} v_stress_xxyy file sxxyy.av units reduced ave one
fix av_xxyy_stress all ave/spatial 1 1000 1000 y lower 0.02 v_stress_xxyy file sxxyy.av units reduced ave one

variable stress_zzyy atom c_stress[3]-c_stress[2]
fix av_zzyy_stress all ave/spatial 1 ${Nfreq} ${Nfreq} y lower ${dhists} v_stress_zzyy file szzyy.av units reduced ave one
fix av_zzyy_stress all ave/spatial 1 1000 ${Nfreq} y lower ${dhists} v_stress_zzyy file szzyy.av units reduced ave one
fix av_zzyy_stress all ave/spatial 1 1000 1000 y lower ${dhists} v_stress_zzyy file szzyy.av units reduced ave one
fix av_zzyy_stress all ave/spatial 1 1000 1000 y lower 0.02 v_stress_zzyy file szzyy.av units reduced ave one


compute stress_bond all stress/atom bond
variable stress_bond_xx atom c_stress_bond[1]
fix av_xx_bond all ave/spatial 1 ${Nfreq} ${Nfreq} y lower ${dhists} v_stress_bond_xx file sxx-bond.av units reduced ave one
fix av_xx_bond all ave/spatial 1 1000 ${Nfreq} y lower ${dhists} v_stress_bond_xx file sxx-bond.av units reduced ave one
fix av_xx_bond all ave/spatial 1 1000 1000 y lower ${dhists} v_stress_bond_xx file sxx-bond.av units reduced ave one
fix av_xx_bond all ave/spatial 1 1000 1000 y lower 0.02 v_stress_bond_xx file sxx-bond.av units reduced ave one

variable stress_bond_yy atom c_stress_bond[2]
fix av_yy_bond all ave/spatial 1 ${Nfreq} ${Nfreq} y lower ${dhists} v_stress_bond_yy file syy-bond.av units reduced ave one
fix av_yy_bond all ave/spatial 1 1000 ${Nfreq} y lower ${dhists} v_stress_bond_yy file syy-bond.av units reduced ave one
fix av_yy_bond all ave/spatial 1 1000 1000 y lower ${dhists} v_stress_bond_yy file syy-bond.av units reduced ave one
fix av_yy_bond all ave/spatial 1 1000 1000 y lower 0.02 v_stress_bond_yy file syy-bond.av units reduced ave one

variable stress_bond_zz atom c_stress_bond[3]
fix av_zz_bond all ave/spatial 1 ${Nfreq} ${Nfreq} y lower ${dhists} v_stress_bond_zz file szz-bond.av units reduced ave one
fix av_zz_bond all ave/spatial 1 1000 ${Nfreq} y lower ${dhists} v_stress_bond_zz file szz-bond.av units reduced ave one
fix av_zz_bond all ave/spatial 1 1000 1000 y lower ${dhists} v_stress_bond_zz file szz-bond.av units reduced ave one
fix av_zz_bond all ave/spatial 1 1000 1000 y lower 0.02 v_stress_bond_zz file szz-bond.av units reduced ave one

variable stress_bond_xy atom c_stress_bond[4]
fix av_xy_bond all ave/spatial 1 ${Nfreq} ${Nfreq} y lower ${dhist} v_stress_bond_xy file sxy-bond.av units reduced ave one
fix av_xy_bond all ave/spatial 1 1000 ${Nfreq} y lower ${dhist} v_stress_bond_xy file sxy-bond.av units reduced ave one
fix av_xy_bond all ave/spatial 1 1000 1000 y lower ${dhist} v_stress_bond_xy file sxy-bond.av units reduced ave one
fix av_xy_bond all ave/spatial 1 1000 1000 y lower 0.01 v_stress_bond_xy file sxy-bond.av units reduced ave one

variable stress_bond_xxyy atom c_stress_bond[1]-c_stress_bond[2]
fix av_xxyy_bond_stress all ave/spatial 1 ${Nfreq} ${Nfreq} y lower ${dhists} v_stress_bond_xxyy file sxxyy-bond.av units reduced ave one
fix av_xxyy_bond_stress all ave/spatial 1 1000 ${Nfreq} y lower ${dhists} v_stress_bond_xxyy file sxxyy-bond.av units reduced ave one
fix av_xxyy_bond_stress all ave/spatial 1 1000 1000 y lower ${dhists} v_stress_bond_xxyy file sxxyy-bond.av units reduced ave one
fix av_xxyy_bond_stress all ave/spatial 1 1000 1000 y lower 0.02 v_stress_bond_xxyy file sxxyy-bond.av units reduced ave one

variable stress_bond_zzyy atom c_stress_bond[3]-c_stress_bond[2]
fix av_zzyy_bond_stress all ave/spatial 1 ${Nfreq} ${Nfreq} y lower ${dhists} v_stress_bond_zzyy file szzyy-bond.av units reduced ave one
fix av_zzyy_bond_stress all ave/spatial 1 1000 ${Nfreq} y lower ${dhists} v_stress_bond_zzyy file szzyy-bond.av units reduced ave one
fix av_zzyy_bond_stress all ave/spatial 1 1000 1000 y lower ${dhists} v_stress_bond_zzyy file szzyy-bond.av units reduced ave one
fix av_zzyy_bond_stress all ave/spatial 1 1000 1000 y lower 0.02 v_stress_bond_zzyy file szzyy-bond.av units reduced ave one


compute stress_full all stress/atom
variable stress_full_xx atom c_stress_full[1]
fix av_xx_full all ave/spatial 1 ${Nfreq} ${Nfreq} y lower ${dhists} v_stress_full_xx file sxx-full.av units reduced ave one
fix av_xx_full all ave/spatial 1 1000 ${Nfreq} y lower ${dhists} v_stress_full_xx file sxx-full.av units reduced ave one
fix av_xx_full all ave/spatial 1 1000 1000 y lower ${dhists} v_stress_full_xx file sxx-full.av units reduced ave one
fix av_xx_full all ave/spatial 1 1000 1000 y lower 0.02 v_stress_full_xx file sxx-full.av units reduced ave one

variable stress_full_yy atom c_stress_full[2]
fix av_yy_full all ave/spatial 1 ${Nfreq} ${Nfreq} y lower ${dhists} v_stress_full_yy file syy-full.av units reduced ave one
fix av_yy_full all ave/spatial 1 1000 ${Nfreq} y lower ${dhists} v_stress_full_yy file syy-full.av units reduced ave one
fix av_yy_full all ave/spatial 1 1000 1000 y lower ${dhists} v_stress_full_yy file syy-full.av units reduced ave one
fix av_yy_full all ave/spatial 1 1000 1000 y lower 0.02 v_stress_full_yy file syy-full.av units reduced ave one

variable stress_full_zz atom c_stress_full[3]
fix av_zz_full all ave/spatial 1 ${Nfreq} ${Nfreq} y lower ${dhists} v_stress_full_zz file szz-full.av units reduced ave one
fix av_zz_full all ave/spatial 1 1000 ${Nfreq} y lower ${dhists} v_stress_full_zz file szz-full.av units reduced ave one
fix av_zz_full all ave/spatial 1 1000 1000 y lower ${dhists} v_stress_full_zz file szz-full.av units reduced ave one
fix av_zz_full all ave/spatial 1 1000 1000 y lower 0.02 v_stress_full_zz file szz-full.av units reduced ave one

variable stress_full_xy atom c_stress_full[4]
fix av_xy_full all ave/spatial 1 ${Nfreq} ${Nfreq} y lower ${dhist} v_stress_full_xy file sxy-full.av units reduced ave one
fix av_xy_full all ave/spatial 1 1000 ${Nfreq} y lower ${dhist} v_stress_full_xy file sxy-full.av units reduced ave one
fix av_xy_full all ave/spatial 1 1000 1000 y lower ${dhist} v_stress_full_xy file sxy-full.av units reduced ave one
fix av_xy_full all ave/spatial 1 1000 1000 y lower 0.01 v_stress_full_xy file sxy-full.av units reduced ave one

variable stress_full_xxyy atom c_stress_full[1]-c_stress_full[2]
fix av_xxyy_full_stress all ave/spatial 1 ${Nfreq} ${Nfreq} y lower ${dhists} v_stress_full_xxyy file sxxyy-full.av units reduced ave one
fix av_xxyy_full_stress all ave/spatial 1 1000 ${Nfreq} y lower ${dhists} v_stress_full_xxyy file sxxyy-full.av units reduced ave one
fix av_xxyy_full_stress all ave/spatial 1 1000 1000 y lower ${dhists} v_stress_full_xxyy file sxxyy-full.av units reduced ave one
fix av_xxyy_full_stress all ave/spatial 1 1000 1000 y lower 0.02 v_stress_full_xxyy file sxxyy-full.av units reduced ave one

variable stress_full_zzyy atom c_stress_full[3]-c_stress_full[2]
fix av_zzyy_full_stress all ave/spatial 1 ${Nfreq} ${Nfreq} y lower ${dhists} v_stress_full_zzyy file szzyy-full.av units reduced ave one
fix av_zzyy_full_stress all ave/spatial 1 1000 ${Nfreq} y lower ${dhists} v_stress_full_zzyy file szzyy-full.av units reduced ave one
fix av_zzyy_full_stress all ave/spatial 1 1000 1000 y lower ${dhists} v_stress_full_zzyy file szzyy-full.av units reduced ave one
fix av_zzyy_full_stress all ave/spatial 1 1000 1000 y lower 0.02 v_stress_full_zzyy file szzyy-full.av units reduced ave one

variable dhist delete
dump               dump_id all custom 100 dump*.dat id type x y z vx vy vz c_rho_peratom
dump_modify        dump_id first yes
dump_modify        dump_id sort id
dump_modify        dump_id pad 8

dump               dump_dcd all dcd 100 dump.dcd

thermo_style       custom step c_sdpd_kin c_pTemp
thermo_modify      norm no
thermo             100

include            ${ndim}-image.lmp
include            3d-image.lmp
variable  adiam equal 0.5*${dx}
variable  adiam equal 0.5*2.5e-05
variable  abond equal 0.25*${dx}
variable  abond equal 0.25*2.5e-05
variable  ximgsize equal 300
variable  yimgsize equal round(${ximgsize}*${Ly}/${Lx})
variable  yimgsize equal round(300*${Ly}/${Lx})
variable  yimgsize equal round(300*0.001803/${Lx})
variable  yimgsize equal round(300*0.001803/0.0007212)
variable  vlx     atom vx*100
dump imgDump all image 100 image.*.jpg type type atom no bond atom ${abond} adiam ${adiam} view 0 0 zoom 3.5  box yes 0.01
dump imgDump all image 100 image.*.jpg type type atom no bond atom 6.25e-06 adiam ${adiam} view 0 0 zoom 3.5  box yes 0.01
dump imgDump all image 100 image.*.jpg type type atom no bond atom 6.25e-06 adiam 1.25e-05 view 0 0 zoom 3.5  box yes 0.01
dump_modify        imgDump pad 9

variable  adiam delete
variable  abond delete
variable ximgsize delete
variable yimgsize delete

variable           eps equal 0.25*${dx}
variable           eps equal 0.25*2.5e-05
neighbor           ${eps} bin
neighbor           6.25e-06 bin
variable           eps delete
neigh_modify       every 1
include            settimestep.lmp
# "viscouse" dt
variable dt_eta equal 1/8.0*${dx}*${dx}/(${sdpd_mu})
variable dt_eta equal 1/8.0*2.5e-05*${dx}/(${sdpd_mu})
variable dt_eta equal 1/8.0*2.5e-05*2.5e-05/(${sdpd_mu})
variable dt_eta equal 1/8.0*2.5e-05*2.5e-05/(1.5e-05)

# sound speed dt
if "${sdpd_c}>0" then "variable dt_c equal 1/4.0*${dx}/${sdpd_c}" else "variable dt_c equal 1e30"
variable dt_c equal 1/4.0*${dx}/${sdpd_c}
variable dt_c equal 1/4.0*2.5e-05/${sdpd_c}variable dt_c equal 1/4.0*2.5e-05/0.3
if "${dt_c}>${dt_eta}" then "variable dt equal ${dt_eta}" else "variable dt equal ${dt_c}"
variable dt equal ${dt_eta}
variable dt equal 5.208333333e-06
print "(settimestep) dt_c dt_eta dt ${dt_c} ${dt_eta} ${dt}"
(settimestep) dt_c dt_eta dt 2.083333333e-05 5.208333333e-06 5.208333333e-06
timestep           ${dt}
timestep           5.208333333e-06

restart 10000 sdpd.restart

#include           fene.lmp

bond_coeff 1 ${H} ${r0}  0 0
bond_coeff 1 0.0005309979471 ${r0}  0 0
bond_coeff 1 0.0005309979471 3.605623926e-05  0 0
variable bodyfx atom mass*${gx}*((y>${Ly}/2.0)-(y<${Ly}/2.0))
variable bodyfx atom mass*0.612*((y>${Ly}/2.0)-(y<${Ly}/2.0))
variable bodyfx atom mass*0.612*((y>0.001803/2.0)-(y<${Ly}/2.0))
variable bodyfx atom mass*0.612*((y>0.001803/2.0)-(y<0.001803/2.0))
fix reverce_periodic all addforce v_bodyfx 0.0 0.0 

run   1000000 every 1000 "velocity all zero linear"
WARNING: Use special bonds = 0,1,1 with bond style fene (bond_fene.cpp:189)
Memory usage per processor = 12.146 Mbytes
Step sdpd_kin pTemp 
       0            0            0 
     100 9.9495226e+08 9.9483985e+08 
     200 9.8746208e+08 9.8709111e+08 
     300 9.8428429e+08 9.8390677e+08 
     400 9.8023868e+08 9.7971068e+08 
     500 9.757105e+08 9.7508238e+08 
     600 9.7991674e+08 9.7903544e+08 
     700 9.8406784e+08 9.8300411e+08 
     800 9.8181857e+08 9.8071796e+08 
     900 9.8337483e+08 9.8183905e+08 
    1000 9.7582776e+08 9.7407494e+08 
Loop time of 1265.03 on 6 procs for 1000 steps with 31755 atoms

Pair  time (%) = 940.462 (74.3431)
Bond  time (%) = 1.27904 (0.101107)
Neigh time (%) = 8.44236 (0.667364)
Comm  time (%) = 224.045 (17.7106)
Outpt time (%) = 3.79118 (0.299691)
Other time (%) = 87.0107 (6.87815)

Nlocal:    5292.5 ave 5400 max 5215 min
Histogram: 2 0 0 1 1 0 0 1 0 1
Nghost:    8002.5 ave 8138 max 7845 min
Histogram: 1 1 0 0 0 0 2 1 0 1
Neighs:    297745 ave 308277 max 288296 min
Histogram: 1 0 1 1 1 0 0 0 1 1
FullNghs: 595489 ave 616267 max 576349 min
Histogram: 1 0 1 1 1 0 0 0 1 1

Total # of neighbors = 3572936
Ave neighs/atom = 112.516
Ave special neighs/atom = 5.09986
Neighbor list builds = 100
Dangerous builds = 100
velocity all zero linear
WARNING: Use special bonds = 0,1,1 with bond style fene (bond_fene.cpp:189)
Memory usage per processor = 18.1262 Mbytes
Step sdpd_kin pTemp 
    1000 9.7582776e+08 9.7407494e+08 
    1100 9.7982152e+08 9.7791151e+08 
    1200 9.8790188e+08 9.8581629e+08 
    1300 9.8743722e+08 9.8502682e+08 
    1400 9.8819123e+08 9.8570884e+08 
    1500 9.9080452e+08 9.8818517e+08 
    1600 9.8553203e+08 9.8247995e+08 
    1700 9.871174e+08 9.8414969e+08 
    1800 9.9579088e+08 9.9252743e+08 
    1900 9.9543579e+08 9.9203763e+08 
    2000 9.8947818e+08 9.8575326e+08 
Loop time of 1277.99 on 6 procs for 1000 steps with 31755 atoms

Pair  time (%) = 937.67 (73.3707)
Bond  time (%) = 1.44666 (0.113198)
Neigh time (%) = 8.19958 (0.6416)
Comm  time (%) = 238.458 (18.6588)
Outpt time (%) = 3.76375 (0.294505)
Other time (%) = 88.4523 (6.92121)

Nlocal:    5292.5 ave 5408 max 5201 min
Histogram: 1 0 2 1 0 0 0 1 0 1
Nghost:    7840.17 ave 7925 max 7701 min
Histogram: 1 1 0 0 0 0 0 1 1 2
Neighs:    296340 ave 306924 max 290617 min
Histogram: 2 2 0 0 0 0 0 1 0 1
FullNghs: 592680 ave 613046 max 581830 min
Histogram: 3 1 0 0 0 0 0 0 1 1

Total # of neighbors = 3556078
Ave neighs/atom = 111.985
Ave special neighs/atom = 5.09986
Neighbor list builds = 100
Dangerous builds = 100
velocity all zero linear
WARNING: Use special bonds = 0,1,1 with bond style fene (bond_fene.cpp:189)
Memory usage per processor = 18.1262 Mbytes
Step sdpd_kin pTemp 
    2000 9.8947818e+08 9.8575326e+08 
    2100 9.9084607e+08 9.8687396e+08 
    2200 9.8616629e+08 9.8226112e+08 
    2300 9.9492265e+08 9.9084787e+08 
    2400 9.8365375e+08 9.7933133e+08 
    2500 9.9014902e+08 9.8559859e+08 
    2600 9.8454864e+08 9.7970457e+08 
    2700 9.9226907e+08 9.8727702e+08 
    2800 9.9142421e+08 9.8629739e+08 
    2900 9.9533342e+08 9.8978349e+08 
    3000 9.8643431e+08 9.8047648e+08 
Loop time of 1297.85 on 6 procs for 1000 steps with 31755 atoms

Pair  time (%) = 938.201 (72.2889)
Bond  time (%) = 1.44405 (0.111265)
Neigh time (%) = 8.21883 (0.633265)
Comm  time (%) = 261.531 (20.1511)
Outpt time (%) = 4.24225 (0.326867)
Other time (%) = 84.2126 (6.48862)

Nlocal:    5292.5 ave 5386 max 5199 min
Histogram: 1 0 0 2 1 0 0 0 1 1
Nghost:    7814.17 ave 7960 max 7630 min
Histogram: 1 0 0 2 0 0 0 1 1 1
Neighs:    297914 ave 307503 max 289199 min
Histogram: 1 0 0 2 1 0 0 1 0 1
FullNghs: 595828 ave 614228 max 579298 min
Histogram: 1 0 1 1 1 0 0 1 0 1

Total # of neighbors = 3574966
Ave neighs/atom = 112.58
Ave special neighs/atom = 5.09986
Neighbor list builds = 100
Dangerous builds = 100
velocity all zero linear
WARNING: Use special bonds = 0,1,1 with bond style fene (bond_fene.cpp:189)
Memory usage per processor = 18.8891 Mbytes
Step sdpd_kin pTemp 
    3000 9.8643429e+08 9.8047648e+08 
    3100 9.9850041e+08 9.9252867e+08 
    3200 9.8868147e+08 9.8257278e+08 
    3300 1.0008114e+09 9.9397379e+08 
    3400 9.9735059e+08 9.9060296e+08 
    3500 9.9050728e+08 9.8386406e+08 
    3600 9.9959258e+08 9.9263887e+08 
    3700 9.9580132e+08 9.8866663e+08 
    3800 9.9562247e+08 9.8823082e+08 
    3900 9.9346568e+08 9.8565206e+08 
    4000 9.9027433e+08 9.8197211e+08 
Loop time of 1288.4 on 6 procs for 1000 steps with 31755 atoms

Pair  time (%) = 931.199 (72.2756)
Bond  time (%) = 1.40455 (0.109015)
Neigh time (%) = 8.04418 (0.624354)
Comm  time (%) = 260.143 (20.1911)
Outpt time (%) = 3.48011 (0.270111)
Other time (%) = 84.1304 (6.52983)

Nlocal:    5292.5 ave 5383 max 5126 min
Histogram: 1 0 1 0 0 0 0 0 3 1
Nghost:    7842.83 ave 7914 max 7718 min
Histogram: 1 0 0 0 0 1 0 3 0 1
Neighs:    299279 ave 307657 max 285331 min
Histogram: 1 0 1 0 0 0 0 1 1 2
FullNghs: 598559 ave 614887 max 570969 min
Histogram: 1 1 0 0 0 0 0 0 2 2

Total # of neighbors = 3591352
Ave neighs/atom = 113.096
Ave special neighs/atom = 5.09986
Neighbor list builds = 100
Dangerous builds = 100
velocity all zero linear
WARNING: Use special bonds = 0,1,1 with bond style fene (bond_fene.cpp:189)
Memory usage per processor = 18.1262 Mbytes
Step sdpd_kin pTemp 
    4000 9.9027426e+08 9.8197211e+08 
    4100 9.9212153e+08 9.8419863e+08 
    4200 9.944473e+08 9.8676716e+08 
    4300 1.0032567e+09 9.9529751e+08 
    4400 9.9897387e+08 9.9092599e+08 
    4500 1.0012718e+09 9.9328618e+08 
    4600 9.9943023e+08 9.9133636e+08 
    4700 9.9028923e+08 9.8222545e+08 
    4800 9.9009729e+08 9.8197599e+08 
    4900 9.9644072e+08 9.882314e+08 
    5000 9.9813065e+08 9.9010245e+08 
Loop time of 1312.28 on 6 procs for 1000 steps with 31755 atoms

Pair  time (%) = 944.247 (71.9548)
Bond  time (%) = 1.40624 (0.10716)
Neigh time (%) = 8.13933 (0.620245)
Comm  time (%) = 270.143 (20.5858)
Outpt time (%) = 4.06474 (0.309747)
Other time (%) = 84.2773 (6.42222)

Nlocal:    5292.5 ave 5535 max 5140 min
Histogram: 2 0 1 0 1 1 0 0 0 1
Nghost:    7827.67 ave 7940 max 7742 min
Histogram: 2 0 1 0 1 0 0 0 1 1
Neighs:    301400 ave 324282 max 289016 min
Histogram: 2 1 0 0 2 0 0 0 0 1
FullNghs: 602801 ave 648951 max 579303 min
Histogram: 2 1 0 0 2 0 0 0 0 1

Total # of neighbors = 3616806
Ave neighs/atom = 113.897
Ave special neighs/atom = 5.09986
Neighbor list builds = 100
Dangerous builds = 100
velocity all zero linear
WARNING: Use special bonds = 0,1,1 with bond style fene (bond_fene.cpp:189)
Memory usage per processor = 18.1262 Mbytes
Step sdpd_kin pTemp 
    5000 9.9813062e+08 9.9010245e+08 
    5100 9.9128665e+08 9.8293982e+08 
    5200 1.000136e+09 9.9175548e+08 
    5300 9.9679655e+08 9.8804963e+08 
    5400 9.9246738e+08 9.8374038e+08 
    5500 9.9750442e+08 9.8861892e+08 
    5600 9.9932386e+08  9.90243e+08 
    5700 1.0000276e+09 9.9117059e+08 
    5800 9.9359348e+08 9.8467074e+08 
    5900 9.9929298e+08 9.9013257e+08 
    6000 9.9632483e+08 9.8696087e+08 
Loop time of 1359.2 on 6 procs for 1000 steps with 31755 atoms

Pair  time (%) = 958.844 (70.545)
Bond  time (%) = 1.4179 (0.104319)
Neigh time (%) = 8.18649 (0.602304)
Comm  time (%) = 301.103 (22.1531)
Outpt time (%) = 4.00701 (0.294807)
Other time (%) = 85.6364 (6.30053)

Nlocal:    5292.5 ave 5586 max 5175 min
Histogram: 3 1 0 0 1 0 0 0 0 1
Nghost:    7796.67 ave 7931 max 7721 min
Histogram: 2 1 0 0 1 1 0 0 0 1
Neighs:    303094 ave 331817 max 291671 min
Histogram: 3 1 0 0 1 0 0 0 0 1
FullNghs: 606189 ave 664747 max 584181 min
Histogram: 3 1 0 0 1 0 0 0 0 1

Total # of neighbors = 3637132
Ave neighs/atom = 114.537
Ave special neighs/atom = 5.09986
Neighbor list builds = 100
Dangerous builds = 100
velocity all zero linear
WARNING: Use special bonds = 0,1,1 with bond style fene (bond_fene.cpp:189)
Memory usage per processor = 18.1262 Mbytes
Step sdpd_kin pTemp 
    6000 9.9632481e+08 9.8696087e+08 
    6100 1.0062058e+09 9.9686271e+08 
    6200 9.9608772e+08 9.8666302e+08 
    6300 1.0020687e+09 9.9216068e+08 
    6400 1.0017123e+09 9.9164986e+08 
    6500 9.9854729e+08 9.8839443e+08 
    6600 9.9951103e+08 9.8921874e+08 
    6700 1.003866e+09 9.9340804e+08 
    6800 1.0040981e+09 9.9355489e+08 
    6900 1.0015407e+09 9.9092024e+08 
    7000 9.9839978e+08 9.8783193e+08 
Loop time of 1381.05 on 6 procs for 1000 steps with 31755 atoms

Pair  time (%) = 965.097 (69.8812)
Bond  time (%) = 1.45412 (0.105291)
Neigh time (%) = 8.15997 (0.590851)
Comm  time (%) = 318.797 (23.0836)
Outpt time (%) = 3.79084 (0.274489)
Other time (%) = 83.7557 (6.06462)

Nlocal:    5292.5 ave 5649 max 5125 min
Histogram: 2 2 0 0 0 1 0 0 0 1
Nghost:    7859.83 ave 7959 max 7782 min
Histogram: 1 1 0 0 1 2 0 0 0 1
Neighs:    304656 ave 340784 max 288813 min
Histogram: 2 2 0 0 1 0 0 0 0 1
FullNghs: 609312 ave 682199 max 576017 min
Histogram: 2 2 0 0 1 0 0 0 0 1

Total # of neighbors = 3655870
Ave neighs/atom = 115.127
Ave special neighs/atom = 5.09986
Neighbor list builds = 100
Dangerous builds = 100
velocity all zero linear
WARNING: Use special bonds = 0,1,1 with bond style fene (bond_fene.cpp:189)
Memory usage per processor = 18.1262 Mbytes
Step sdpd_kin pTemp 
    7000 9.9839969e+08 9.8783193e+08 
    7100 1.0072321e+09 9.9618442e+08 
    7200 1.0032403e+09 9.9241533e+08 
    7300 1.0097475e+09 9.9838869e+08 
    7400 9.9912633e+08 9.8773416e+08 
    7500 1.0002972e+09 9.8906016e+08 
    7600 1.0068225e+09 9.9563528e+08 
    7700 1.002475e+09 9.9071253e+08 
    7800 1.0054938e+09 9.9409472e+08 
    7900 9.9525486e+08 9.8353941e+08 
    8000   1.0037e+09 9.9216131e+08 
Loop time of 1359.49 on 6 procs for 1000 steps with 31755 atoms

Pair  time (%) = 950.294 (69.9008)
Bond  time (%) = 1.40247 (0.103162)
Neigh time (%) = 7.97685 (0.586754)
Comm  time (%) = 311.693 (22.9272)
Outpt time (%) = 3.72716 (0.274159)
Other time (%) = 84.396 (6.20792)

Nlocal:    5292.5 ave 5728 max 5099 min
Histogram: 3 0 0 2 0 0 0 0 0 1
Nghost:    7818.33 ave 8133 max 7629 min
Histogram: 2 0 1 0 1 1 0 0 0 1
Neighs:    305844 ave 349837 max 284394 min
Histogram: 1 2 0 2 0 0 0 0 0 1
FullNghs: 611688 ave 699244 max 567824 min
Histogram: 1 2 0 2 0 0 0 0 0 1

Total # of neighbors = 3670126
Ave neighs/atom = 115.576
Ave special neighs/atom = 5.09986
Neighbor list builds = 100
Dangerous builds = 100
velocity all zero linear
WARNING: Use special bonds = 0,1,1 with bond style fene (bond_fene.cpp:189)
Memory usage per processor = 18.1262 Mbytes
Step sdpd_kin pTemp 
    8000 1.0036998e+09 9.9216131e+08 
    8100 1.0080347e+09 9.959977e+08 
    8200 1.0016331e+09 9.8951727e+08 
    8300 1.0106101e+09 9.9880343e+08 
    8400 1.0062385e+09 9.9408127e+08 
    8500 1.000071e+09 9.8768105e+08 
    8600 1.0135157e+09 1.0011366e+09 
    8700 1.0027232e+09  9.90608e+08 
    8800 1.0136891e+09 1.0016207e+09 
    8900 1.0115769e+09 9.9912683e+08 
    9000 1.0045704e+09 9.9177047e+08 
Loop time of 1328.88 on 6 procs for 1000 steps with 31755 atoms

Pair  time (%) = 940.511 (70.7746)
Bond  time (%) = 1.38713 (0.104383)
Neigh time (%) = 7.93004 (0.596746)
Comm  time (%) = 291.392 (21.9276)
Outpt time (%) = 3.46087 (0.260435)
Other time (%) = 84.2011 (6.33624)

Nlocal:    5292.5 ave 5559 max 5044 min
Histogram: 1 0 1 0 2 0 0 1 0 1
Nghost:    7765.17 ave 7945 max 7497 min
Histogram: 1 0 0 1 0 0 2 0 0 2
Neighs:    306321 ave 334126 max 287217 min
Histogram: 1 1 1 0 1 0 1 0 0 1
FullNghs: 612641 ave 667947 max 574527 min
Histogram: 1 1 0 1 1 0 1 0 0 1

Total # of neighbors = 3675848
Ave neighs/atom = 115.757
Ave special neighs/atom = 5.09986
Neighbor list builds = 100
Dangerous builds = 100
velocity all zero linear
WARNING: Use special bonds = 0,1,1 with bond style fene (bond_fene.cpp:189)
Memory usage per processor = 18.8891 Mbytes
Step sdpd_kin pTemp 
    9000 1.0045703e+09 9.9177047e+08 
    9100 1.0068453e+09 9.9422054e+08 
    9200 1.0077018e+09 9.9468349e+08 
    9300 1.0108916e+09 9.9698471e+08 
    9400 1.0129519e+09 9.9859206e+08 
    9500 1.0126291e+09 9.9814901e+08 
    9600 1.000073e+09 9.8533207e+08 
    9700 1.0046228e+09 9.8955794e+08 
    9800 1.0123823e+09 9.9714145e+08 
    9900 1.0124973e+09 9.9632342e+08 
   10000 1.0123378e+09 9.9661237e+08 
Loop time of 1344.57 on 6 procs for 1000 steps with 31755 atoms

Pair  time (%) = 948.427 (70.5375)
Bond  time (%) = 1.41219 (0.105029)
Neigh time (%) = 8.02956 (0.597183)
Comm  time (%) = 299.377 (22.2656)
Outpt time (%) = 3.6289 (0.269893)
Other time (%) = 83.6977 (6.22486)

Nlocal:    5292.5 ave 5504 max 5190 min
Histogram: 1 3 0 0 0 1 0 0 0 1
Nghost:    7887.33 ave 8020 max 7591 min
Histogram: 1 0 0 0 0 1 1 0 0 3
Neighs:    305454 ave 325352 max 295116 min
Histogram: 2 1 0 1 0 1 0 0 0 1
FullNghs: 610909 ave 651032 max 589537 min
Histogram: 2 0 2 0 0 1 0 0 0 1

Total # of neighbors = 3665454
Ave neighs/atom = 115.429
Ave special neighs/atom = 5.09986
Neighbor list builds = 100
Dangerous builds = 99
velocity all zero linear
WARNING: Use special bonds = 0,1,1 with bond style fene (bond_fene.cpp:189)
Memory usage per processor = 18.8891 Mbytes
Step sdpd_kin pTemp 
   10000 1.0123378e+09 9.9661237e+08 
   10100 1.0088221e+09 9.9270152e+08 
   10200 1.0176919e+09 1.0012391e+09 
   10300 1.013898e+09 9.9726786e+08 
   10400 1.0131848e+09 9.9631837e+08 
   10500 1.012942e+09 9.9608626e+08 
   10600 1.0109338e+09 9.9409269e+08 
   10700 1.0148769e+09 9.9807611e+08 
   10800 1.0124958e+09 9.9492955e+08 
   10900 1.0174511e+09 1.0001194e+09 
   11000 1.0153248e+09 9.973248e+08 
Loop time of 1319.72 on 6 procs for 1000 steps with 31755 atoms

Pair  time (%) = 953.284 (72.2337)
Bond  time (%) = 1.40538 (0.106491)
Neigh time (%) = 7.99205 (0.605586)
Comm  time (%) = 268.453 (20.3416)
Outpt time (%) = 3.69147 (0.279716)
Other time (%) = 84.8957 (6.43285)

Nlocal:    5292.5 ave 5427 max 5154 min
Histogram: 1 1 1 0 0 0 0 1 1 1
Nghost:    7762.17 ave 8007 max 7572 min
Histogram: 1 1 0 2 0 0 0 1 0 1
Neighs:    306107 ave 317667 max 292290 min
Histogram: 1 0 1 1 0 0 0 0 2 1
FullNghs: 612215 ave 635043 max 584122 min
Histogram: 1 0 0 2 0 0 0 0 2 1

Total # of neighbors = 3673288
Ave neighs/atom = 115.676
Ave special neighs/atom = 5.09986
Neighbor list builds = 100
Dangerous builds = 100
velocity all zero linear
WARNING: Use special bonds = 0,1,1 with bond style fene (bond_fene.cpp:189)
Memory usage per processor = 18.8891 Mbytes
Step sdpd_kin pTemp 
   11000 1.0153247e+09 9.973248e+08 
   11100 1.0171626e+09 1.0001492e+09 
   11200 1.0130199e+09 9.9504678e+08 
   11300 1.0221242e+09 1.004291e+09 
   11400 1.013677e+09 9.9556706e+08 
   11500 1.0161596e+09 9.9765998e+08 
   11600 1.0134354e+09 9.952293e+08 
   11700 1.0146919e+09 9.967264e+08 
   11800 1.0202491e+09 1.0020851e+09 
   11900 1.0220551e+09 1.0033082e+09 
   12000 1.0082004e+09 9.8944675e+08 
Loop time of 1284.6 on 6 procs for 1000 steps with 31755 atoms

Pair  time (%) = 952.235 (74.1271)
Bond  time (%) = 1.4381 (0.111949)
Neigh time (%) = 8.05905 (0.62736)
Comm  time (%) = 237.369 (18.4781)
Outpt time (%) = 3.22484 (0.251039)
Other time (%) = 82.2712 (6.40444)

Nlocal:    5292.5 ave 5419 max 5168 min
Histogram: 3 0 0 0 0 0 0 0 0 3
Nghost:    7714.33 ave 8038 max 7481 min
Histogram: 1 0 1 2 0 1 0 0 0 1
Neighs:    306581 ave 323305 max 290679 min
Histogram: 2 0 1 0 0 0 0 1 0 2
FullNghs: 613162 ave 645148 max 579127 min
Histogram: 2 0 1 0 0 0 0 0 1 2

Total # of neighbors = 3678970
Ave neighs/atom = 115.855
Ave special neighs/atom = 5.09986
Neighbor list builds = 100
Dangerous builds = 100
velocity all zero linear
WARNING: Use special bonds = 0,1,1 with bond style fene (bond_fene.cpp:189)
Memory usage per processor = 18.8891 Mbytes
Step sdpd_kin pTemp 
   12000 1.0082002e+09 9.8944675e+08 
   12100 1.0177792e+09 9.9948442e+08 
   12200 1.0227944e+09 1.0047491e+09 
   12300 1.0185351e+09 1.000428e+09 
   12400 1.0205023e+09 1.001719e+09 
   12500 1.0152371e+09 9.9669353e+08 
   12600 1.0192167e+09 1.0005996e+09 
   12700 1.0217651e+09 1.002912e+09 
   12800 1.0158025e+09 9.9703131e+08 
   12900 1.0191976e+09 1.0005269e+09 
   13000 1.0178139e+09 9.9858885e+08 
Loop time of 1304.9 on 6 procs for 1000 steps with 31755 atoms

Pair  time (%) = 956.717 (73.3173)
Bond  time (%) = 1.39469 (0.106881)
Neigh time (%) = 7.98226 (0.611715)
Comm  time (%) = 251.275 (19.2562)
Outpt time (%) = 3.75783 (0.287978)
Other time (%) = 83.7731 (6.41989)

Nlocal:    5292.5 ave 5394 max 5202 min
Histogram: 2 1 0 0 0 0 0 1 0 2
Nghost:    7670.83 ave 8020 max 7327 min
Histogram: 2 0 0 0 0 1 1 1 0 1
Neighs:    306294 ave 317540 max 294111 min
Histogram: 1 0 1 1 0 1 0 0 0 2
FullNghs: 612588 ave 637437 max 587481 min
Histogram: 1 0 2 0 0 1 0 0 1 1

Total # of neighbors = 3675528
Ave neighs/atom = 115.746
Ave special neighs/atom = 5.09986
Neighbor list builds = 100
Dangerous builds = 100
velocity all zero linear
WARNING: Use special bonds = 0,1,1 with bond style fene (bond_fene.cpp:189)
Memory usage per processor = 18.8891 Mbytes
Step sdpd_kin pTemp 
   13000 1.0178137e+09 9.9858885e+08 
   13100 1.0160723e+09 9.9706706e+08 
   13200 1.0159602e+09 9.9682205e+08 
   13300 1.0183279e+09 9.9905877e+08 
   13400 1.016006e+09 9.9659502e+08 
   13500 1.0258657e+09 1.0065113e+09 
   13600 1.0211374e+09 1.0017319e+09 
   13700 1.0253018e+09 1.0054008e+09 
   13800 1.0144488e+09 9.9444688e+08 
   13900 1.0204833e+09 1.0003104e+09 
   14000 1.0166323e+09 9.965788e+08 
Loop time of 1295.55 on 6 procs for 1000 steps with 31755 atoms

Pair  time (%) = 955.398 (73.7447)
Bond  time (%) = 1.37862 (0.106412)
Neigh time (%) = 8.03374 (0.620104)
Comm  time (%) = 241.963 (18.6765)
Outpt time (%) = 4.0547 (0.312972)
Other time (%) = 84.7192 (6.53926)

Nlocal:    5292.5 ave 5435 max 5029 min
Histogram: 1 0 0 0 0 0 2 1 0 2
Nghost:    7855 ave 8098 max 7615 min
Histogram: 1 0 1 1 0 1 0 0 1 1
Neighs:    305528 ave 318757 max 277451 min
Histogram: 1 0 0 0 0 1 1 0 1 2
FullNghs: 611056 ave 637496 max 554799 min
Histogram: 1 0 0 0 0 1 1 0 1 2

Total # of neighbors = 3666338
Ave neighs/atom = 115.457
Ave special neighs/atom = 5.09986
Neighbor list builds = 100
Dangerous builds = 100
velocity all zero linear
WARNING: Use special bonds = 0,1,1 with bond style fene (bond_fene.cpp:189)
Memory usage per processor = 18.891 Mbytes
Step sdpd_kin pTemp 
   14000 1.0166321e+09 9.965788e+08 
   14100 1.0246148e+09 1.0045115e+09 
   14200 1.0207481e+09 1.0000045e+09 
   14300 1.032748e+09 1.0119982e+09 
   14400 1.019973e+09 9.9882897e+08 
   14500 1.0212048e+09 1.000309e+09 
   14600 1.0244356e+09 1.0034735e+09 
   14700 1.0165464e+09 9.9546869e+08 
   14800 1.0196869e+09 9.9845748e+08 
   14900 1.019417e+09 9.9762184e+08 
   15000 1.0221269e+09  1.00009e+09 
Loop time of 1036.85 on 6 procs for 1000 steps with 31755 atoms

Pair  time (%) = 800.265 (77.1823)
Bond  time (%) = 1.15529 (0.111423)
Neigh time (%) = 6.69823 (0.646017)
Comm  time (%) = 165.624 (15.9738)
Outpt time (%) = 2.91991 (0.281613)
Other time (%) = 60.1878 (5.80487)

Nlocal:    5292.5 ave 5413 max 5075 min
Histogram: 1 0 0 0 1 0 0 2 0 2
Nghost:    7807.5 ave 8065 max 7617 min
Histogram: 2 1 0 1 0 0 0 0 0 2
Neighs:    305879 ave 319114 max 280147 min
Histogram: 1 0 0 0 0 0 2 1 0 2
FullNghs: 611758 ave 638778 max 559235 min
Histogram: 1 0 0 0 0 0 2 0 1 2

Total # of neighbors = 3670548
Ave neighs/atom = 115.59
Ave special neighs/atom = 5.09986
Neighbor list builds = 100
Dangerous builds = 100
velocity all zero linear
WARNING: Use special bonds = 0,1,1 with bond style fene (bond_fene.cpp:189)
Memory usage per processor = 18.891 Mbytes
Step sdpd_kin pTemp 
   15000 1.0221268e+09  1.00009e+09 
   15100 1.0163571e+09 9.9412722e+08 
   15200 1.0286549e+09 1.0067173e+09 
   15300 1.0171473e+09 9.9573722e+08 
   15400 1.0179783e+09 9.9638141e+08 
   15500 1.0222535e+09 1.0008783e+09 
   15600 1.0140891e+09 9.9191088e+08 
   15700 1.0189709e+09 9.969521e+08 
   15800 1.0215937e+09 9.9986023e+08 
   15900 1.026163e+09 1.0037692e+09 
   16000 1.0180337e+09 9.9597598e+08 
Loop time of 675.704 on 6 procs for 1000 steps with 31755 atoms

Pair  time (%) = 609.937 (90.2668)
Bond  time (%) = 0.787076 (0.116482)
Neigh time (%) = 5.18145 (0.766821)
Comm  time (%) = 23.3338 (3.45326)
Outpt time (%) = 2.10568 (0.311627)
Other time (%) = 34.3596 (5.085)

Nlocal:    5292.5 ave 5382 max 5185 min
Histogram: 1 0 0 2 0 0 0 0 2 1
Nghost:    7758.5 ave 8098 max 7574 min
Histogram: 1 1 1 2 0 0 0 0 0 1
Neighs:    304333 ave 314016 max 291034 min
Histogram: 1 0 0 2 0 0 0 0 1 2
FullNghs: 608666 ave 627586 max 580591 min
Histogram: 1 0 0 2 0 0 0 0 1 2

Total # of neighbors = 3651998
Ave neighs/atom = 115.005
Ave special neighs/atom = 5.09986
Neighbor list builds = 100
Dangerous builds = 100
velocity all zero linear
WARNING: Use special bonds = 0,1,1 with bond style fene (bond_fene.cpp:189)
Memory usage per processor = 18.891 Mbytes
Step sdpd_kin pTemp 
   16000 1.0180337e+09 9.9597598e+08 
   16100 1.0212555e+09 9.987114e+08 
   16200 1.0245151e+09 1.0021712e+09 
   16300 1.0262213e+09 1.0033762e+09 
   16400 1.0251502e+09 1.0024612e+09 
   16500 1.030955e+09 1.0081364e+09 
   16600 1.0251337e+09 1.0022863e+09 
   16700 1.0297937e+09 1.0068054e+09 
   16800 1.0181117e+09 9.953954e+08 
   16900 1.0201884e+09 9.9742613e+08 
   17000 1.0295553e+09 1.0062025e+09 
Loop time of 684.93 on 6 procs for 1000 steps with 31755 atoms

Pair  time (%) = 607.007 (88.6232)
Bond  time (%) = 0.787589 (0.114988)
Neigh time (%) = 5.15986 (0.753341)
Comm  time (%) = 35.4764 (5.17956)
Outpt time (%) = 2.10455 (0.307265)
Other time (%) = 34.3948 (5.02164)

Nlocal:    5292.5 ave 5494 max 5175 min
Histogram: 2 0 1 0 2 0 0 0 0 1
Nghost:    7744.67 ave 7978 max 7539 min
Histogram: 1 1 0 1 1 0 0 0 0 2
Neighs:    304750 ave 325508 max 295818 min
Histogram: 2 0 2 1 0 0 0 0 0 1
FullNghs: 609501 ave 652916 max 591727 min
Histogram: 2 0 2 1 0 0 0 0 0 1

Total # of neighbors = 3657004
Ave neighs/atom = 115.163
Ave special neighs/atom = 5.09986
Neighbor list builds = 100
Dangerous builds = 100
velocity all zero linear
WARNING: Use special bonds = 0,1,1 with bond style fene (bond_fene.cpp:189)
Memory usage per processor = 18.891 Mbytes
Step sdpd_kin pTemp 
   17000 1.0295553e+09 1.0062025e+09 
   17100 1.0212259e+09 9.981785e+08 
   17200 1.0205887e+09 9.9771729e+08 
   17300 1.0226789e+09 9.9920301e+08 
   17400 1.0281994e+09 1.0049849e+09 
   17500 1.0246583e+09 1.0010893e+09 
   17600 1.0337857e+09 1.0100064e+09 
   17700 1.0361154e+09 1.0124624e+09 
   17800 1.0249427e+09 1.0011171e+09 
   17900 1.0236979e+09 9.9943533e+08 
   18000 1.0269282e+09 1.0026673e+09 
Loop time of 696.806 on 6 procs for 1000 steps with 31755 atoms

Pair  time (%) = 605.477 (86.8932)
Bond  time (%) = 0.778643 (0.111745)
Neigh time (%) = 5.1434 (0.73814)
Comm  time (%) = 48.9091 (7.01904)
Outpt time (%) = 2.10806 (0.302532)
Other time (%) = 34.3899 (4.93536)

Nlocal:    5292.5 ave 5490 max 5145 min
Histogram: 1 1 1 0 0 1 1 0 0 1
Nghost:    7780.5 ave 7982 max 7585 min
Histogram: 1 1 0 1 0 0 1 0 1 1
Neighs:    303864 ave 325906 max 291372 min
Histogram: 2 0 1 1 1 0 0 0 0 1
FullNghs: 607729 ave 651492 max 584016 min
Histogram: 2 0 1 1 1 0 0 0 0 1

Total # of neighbors = 3646374
Ave neighs/atom = 114.828
Ave special neighs/atom = 5.09986
Neighbor list builds = 100
Dangerous builds = 100
velocity all zero linear
WARNING: Use special bonds = 0,1,1 with bond style fene (bond_fene.cpp:189)
Memory usage per processor = 18.891 Mbytes
Step sdpd_kin pTemp 
   18000 1.0269279e+09 1.0026673e+09 
   18100 1.0179129e+09 9.9380369e+08 
   18200 1.0311122e+09 1.006869e+09 
   18300 1.0233703e+09 9.9904732e+08 
   18400 1.0256404e+09 1.0018674e+09 
   18500 1.0265995e+09 1.003111e+09 
   18600 1.0242499e+09 1.0002552e+09 
   18700 1.0316575e+09 1.0078206e+09 
   18800 1.0424274e+09 1.0180875e+09 
   18900 1.0294969e+09 1.0051939e+09 
   19000 1.0227615e+09 9.9895287e+08 
Loop time of 671.739 on 6 procs for 1000 steps with 31755 atoms

Pair  time (%) = 603.005 (89.7677)
Bond  time (%) = 0.782668 (0.116514)
Neigh time (%) = 5.15518 (0.767438)
Comm  time (%) = 26.4187 (3.93288)
Outpt time (%) = 2.12049 (0.315671)
Other time (%) = 34.2573 (5.09979)

Nlocal:    5292.5 ave 5475 max 5169 min
Histogram: 2 0 0 2 0 0 1 0 0 1
Nghost:    7878.5 ave 8000 max 7677 min
Histogram: 1 0 0 1 0 1 0 0 1 2
Neighs:    302358 ave 315696 max 291397 min
Histogram: 2 0 0 1 1 0 0 0 0 2
FullNghs: 604715 ave 631605 max 581023 min
Histogram: 2 0 0 1 1 0 0 0 0 2

Total # of neighbors = 3628290
Ave neighs/atom = 114.259
Ave special neighs/atom = 5.09986
Neighbor list builds = 100
Dangerous builds = 100
velocity all zero linear
WARNING: Use special bonds = 0,1,1 with bond style fene (bond_fene.cpp:189)
Memory usage per processor = 18.1281 Mbytes
Step sdpd_kin pTemp 
   19000 1.0227609e+09 9.9895287e+08 
   19100 1.0340859e+09 1.0101443e+09 
   19200 1.0322998e+09 1.0082499e+09 
   19300 1.0238967e+09 1.0003448e+09 
   19400 1.0343935e+09 1.0102227e+09 
   19500 1.0335985e+09 1.0093024e+09 
   19600 1.0287246e+09 1.0043744e+09 
   19700 1.024832e+09 1.0011527e+09 
   19800 1.0213081e+09 9.9750144e+08 
   19900 1.0353044e+09 1.0113452e+09 
   20000 1.0214188e+09 9.9707792e+08 
Loop time of 664.639 on 6 procs for 1000 steps with 31755 atoms

Pair  time (%) = 603.535 (90.8064)
Bond  time (%) = 0.807213 (0.121451)
Neigh time (%) = 5.18286 (0.779801)
Comm  time (%) = 18.4068 (2.76945)
Outpt time (%) = 2.11068 (0.317567)
Other time (%) = 34.5967 (5.20533)

Nlocal:    5292.5 ave 5345 max 5235 min
Histogram: 1 0 0 1 0 2 0 1 0 1
Nghost:    7846 ave 7927 max 7719 min
Histogram: 1 0 0 0 1 0 1 1 1 1
Neighs:    303319 ave 308721 max 294031 min
Histogram: 1 0 0 0 1 1 0 0 1 2
FullNghs: 606638 ave 617278 max 588919 min
Histogram: 1 0 0 0 1 1 0 0 2 1

Total # of neighbors = 3639830
Ave neighs/atom = 114.622
Ave special neighs/atom = 5.09986
Neighbor list builds = 100
Dangerous builds = 99
velocity all zero linear
WARNING: Use special bonds = 0,1,1 with bond style fene (bond_fene.cpp:189)
Memory usage per processor = 18.5096 Mbytes
Step sdpd_kin pTemp 
   20000 1.0214184e+09 9.9707792e+08 
   20100 1.0351749e+09 1.0105494e+09 
   20200 1.013646e+09 9.8977473e+08 
   20300 1.0233321e+09 9.9902824e+08 
   20400 1.0337889e+09 1.0089585e+09 
   20500 1.0292431e+09 1.0046923e+09 
   20600 1.0295791e+09 1.0045701e+09 
   20700 1.0308195e+09 1.0062597e+09 
   20800 1.0230634e+09 9.9824781e+08 
   20900 1.034099e+09 1.0090757e+09 
   21000 1.0380426e+09 1.012775e+09 
Loop time of 660.249 on 6 procs for 1000 steps with 31755 atoms

Pair  time (%) = 602.922 (91.3173)
Bond  time (%) = 0.792879 (0.120088)
Neigh time (%) = 5.16933 (0.782937)
Comm  time (%) = 16.0517 (2.43115)
Outpt time (%) = 2.10067 (0.318163)
Other time (%) = 33.2126 (5.03031)

Nlocal:    5292.5 ave 5416 max 5177 min
Histogram: 1 0 2 0 1 0 0 0 0 2
Nghost:    7770.5 ave 7965 max 7616 min
Histogram: 2 0 1 0 0 1 0 0 1 1
Neighs:    303350 ave 316692 max 293125 min
Histogram: 1 1 2 0 0 0 0 0 0 2
FullNghs: 606701 ave 632689 max 585504 min
Histogram: 1 1 1 1 0 0 0 0 0 2

Total # of neighbors = 3640206
Ave neighs/atom = 114.634
Ave special neighs/atom = 5.09986
Neighbor list builds = 100
Dangerous builds = 100
velocity all zero linear
WARNING: Use special bonds = 0,1,1 with bond style fene (bond_fene.cpp:189)
Memory usage per processor = 18.891 Mbytes
Step sdpd_kin pTemp 
   21000 1.0380425e+09 1.012775e+09 
   21100 1.0322343e+09 1.0066299e+09 
   21200 1.0341572e+09 1.0086274e+09 
   21300 1.0317726e+09 1.0059678e+09 
   21400 1.0271787e+09 1.0013702e+09 
   21500 1.0254666e+09 9.9960406e+08 
   21600 1.0254748e+09 1.000063e+09 
   21700 1.0268914e+09 1.0008108e+09 
   21800 1.0218012e+09 9.9618205e+08 
   21900 1.0247297e+09 9.9933879e+08 
   22000 1.0316439e+09 1.0058551e+09 
Loop time of 668.33 on 6 procs for 1000 steps with 31755 atoms

Pair  time (%) = 601.204 (89.9562)
Bond  time (%) = 0.794044 (0.11881)
Neigh time (%) = 5.16696 (0.773115)
Comm  time (%) = 25.7946 (3.85956)
Outpt time (%) = 2.11571 (0.316567)
Other time (%) = 33.2543 (4.97573)

Nlocal:    5292.5 ave 5371 max 5220 min
Histogram: 1 1 0 1 1 0 0 0 1 1
Nghost:    7715.83 ave 7985 max 7484 min
Histogram: 1 0 1 1 0 1 1 0 0 1
Neighs:    302716 ave 310576 max 296455 min
Histogram: 2 0 1 0 1 0 0 0 0 2
FullNghs: 605431 ave 621903 max 592009 min
Histogram: 1 1 1 1 0 0 0 0 0 2

Total # of neighbors = 3632588
Ave neighs/atom = 114.394
Ave special neighs/atom = 5.09986
Neighbor list builds = 100
Dangerous builds = 100
velocity all zero linear
WARNING: Use special bonds = 0,1,1 with bond style fene (bond_fene.cpp:189)
Memory usage per processor = 18.891 Mbytes
Step sdpd_kin pTemp 
   22000 1.0316439e+09 1.0058551e+09 
   22100 1.0224985e+09 9.969284e+08 
   22200 1.0309518e+09 1.0051979e+09 
   22300 1.030465e+09 1.0052315e+09 
   22400 1.0258075e+09 1.0001551e+09 
   22500 1.0345862e+09 1.0089581e+09 
   22600 1.0305807e+09 1.0051268e+09 
   22700 1.0260273e+09 1.000142e+09 
   22800 1.0251249e+09 9.9945323e+08 
   22900 1.0340057e+09 1.0076733e+09 
   23000 1.0312959e+09 1.0053065e+09 
Loop time of 666.448 on 6 procs for 1000 steps with 31755 atoms

Pair  time (%) = 601.646 (90.2765)
Bond  time (%) = 0.787276 (0.11813)
Neigh time (%) = 5.16386 (0.774834)
Comm  time (%) = 23.6016 (3.5414)
Outpt time (%) = 2.08813 (0.313322)
Other time (%) = 33.1614 (4.97584)

Nlocal:    5292.5 ave 5402 max 5197 min
Histogram: 1 2 0 0 0 1 0 0 0 2
Nghost:    7690.67 ave 8106 max 7393 min
Histogram: 1 0 2 1 0 0 0 1 0 1
Neighs:    302905 ave 314957 max 294208 min
Histogram: 2 1 0 1 0 0 0 0 0 2
FullNghs: 605810 ave 629881 max 589084 min
Histogram: 2 1 0 1 0 0 0 0 0 2

Total # of neighbors = 3634858
Ave neighs/atom = 114.466
Ave special neighs/atom = 5.09986
Neighbor list builds = 100
Dangerous builds = 100
velocity all zero linear
WARNING: Use special bonds = 0,1,1 with bond style fene (bond_fene.cpp:189)
Memory usage per processor = 18.891 Mbytes
Step sdpd_kin pTemp 
   23000 1.0312959e+09 1.0053065e+09 
   23100 1.0315153e+09 1.0056499e+09 
   23200 1.0285557e+09 1.0026834e+09 
   23300 1.038784e+09 1.0130527e+09 
   23400 1.0299223e+09 1.0036674e+09 
   23500 1.0290977e+09 1.0032557e+09 
   23600 1.0241209e+09 9.9852573e+08 
   23700 1.0285925e+09 1.0032496e+09 
   23800 1.0258358e+09 9.9974852e+08 
   23900 1.0296634e+09 1.0037227e+09 
   24000 1.0259188e+09 1.000851e+09 
Loop time of 674.383 on 6 procs for 1000 steps with 31755 atoms

Pair  time (%) = 602.199 (89.2963)
Bond  time (%) = 0.786073 (0.116562)
Neigh time (%) = 5.15928 (0.765037)
Comm  time (%) = 29.9686 (4.44386)
Outpt time (%) = 2.09956 (0.311331)
Other time (%) = 34.1706 (5.06694)

Nlocal:    5292.5 ave 5427 max 5138 min
Histogram: 1 0 0 1 0 2 0 0 1 1
Nghost:    7723.17 ave 7914 max 7596 min
Histogram: 2 1 0 0 1 0 0 1 0 1
Neighs:    302110 ave 316311 max 288252 min
Histogram: 1 1 0 1 0 1 0 0 0 2
FullNghs: 604220 ave 632480 max 577606 min
Histogram: 2 0 0 1 0 1 0 0 1 1

Total # of neighbors = 3625320
Ave neighs/atom = 114.165
Ave special neighs/atom = 5.09986
Neighbor list builds = 100
Dangerous builds = 100
velocity all zero linear
WARNING: Use special bonds = 0,1,1 with bond style fene (bond_fene.cpp:189)
Memory usage per processor = 18.891 Mbytes
Step sdpd_kin pTemp 
   24000 1.0259188e+09 1.000851e+09 
   24100 1.032139e+09 1.0071027e+09 
   24200 1.0224457e+09 9.9701312e+08 
   24300 1.0314097e+09 1.0059881e+09 
   24400 1.0288498e+09 1.0030721e+09 
   24500 1.0237755e+09 9.9811095e+08 
   24600 1.0358067e+09 1.0106121e+09 
   24700 1.0229872e+09 9.9790939e+08 
   24800 1.0254935e+09 1.0000693e+09 
   24900 1.0240683e+09 9.987524e+08 
   25000 1.0209419e+09 9.9589976e+08 
Loop time of 668.42 on 6 procs for 1000 steps with 31755 atoms

Pair  time (%) = 599.869 (89.7442)
Bond  time (%) = 0.775677 (0.116046)
Neigh time (%) = 5.13178 (0.767748)
Comm  time (%) = 27.3042 (4.08488)
Outpt time (%) = 2.10759 (0.315308)
Other time (%) = 33.2326 (4.97181)

Nlocal:    5292.5 ave 5400 max 5187 min
Histogram: 1 1 0 0 0 2 1 0 0 1
Nghost:    7664.33 ave 7784 max 7588 min
Histogram: 2 0 2 0 0 0 0 0 1 1
Neighs:    303368 ave 316253 max 292940 min
Histogram: 1 0 1 0 2 1 0 0 0 1
FullNghs: 606737 ave 632686 max 586736 min
Histogram: 1 0 1 1 1 1 0 0 0 1

Total # of neighbors = 3640420
Ave neighs/atom = 114.641
Ave special neighs/atom = 5.09986
Neighbor list builds = 100
Dangerous builds = 100
velocity all zero linear
WARNING: Use special bonds = 0,1,1 with bond style fene (bond_fene.cpp:189)
Memory usage per processor = 18.891 Mbytes
Step sdpd_kin pTemp 
   25000 1.0209419e+09 9.9589976e+08 
   25100 1.0292091e+09 1.0039912e+09 
   25200 1.028611e+09 1.0034518e+09 
   25300 1.0334157e+09 1.0083432e+09 
   25400 1.0322097e+09 1.0070258e+09 
   25500 1.0268776e+09 1.0020531e+09 
   25600 1.0246303e+09 1.0001839e+09 
   25700 1.0218561e+09 9.9745378e+08 
   25800 1.0271496e+09 1.0030516e+09 
   25900 1.0227082e+09 9.9841973e+08 
   26000 1.0286943e+09 1.0044774e+09 
Loop time of 660.123 on 6 procs for 1000 steps with 31755 atoms

Pair  time (%) = 600.316 (90.9401)
Bond  time (%) = 0.791803 (0.119948)
Neigh time (%) = 5.1753 (0.783991)
Comm  time (%) = 18.1583 (2.75075)
Outpt time (%) = 2.11146 (0.319859)
Other time (%) = 33.5699 (5.0854)

Nlocal:    5292.5 ave 5361 max 5219 min
Histogram: 1 0 0 1 1 1 1 0 0 1
Nghost:    7818.67 ave 7879 max 7699 min
Histogram: 1 0 0 0 0 1 0 2 0 2
Neighs:    302314 ave 310883 max 294964 min
Histogram: 1 0 0 2 1 0 1 0 0 1
FullNghs: 604629 ave 620822 max 590527 min
Histogram: 1 0 1 1 1 0 1 0 0 1

Total # of neighbors = 3627772
Ave neighs/atom = 114.243
Ave special neighs/atom = 5.09986
Neighbor list builds = 100
Dangerous builds = 100
velocity all zero linear
WARNING: Use special bonds = 0,1,1 with bond style fene (bond_fene.cpp:189)
Memory usage per processor = 18.891 Mbytes
Step sdpd_kin pTemp 
   26000 1.0286939e+09 1.0044774e+09 
   26100 1.0224299e+09 9.986271e+08 
   26200 1.0328721e+09 1.0085715e+09 
   26300 1.0376548e+09 1.0138367e+09 
   26400 1.0261738e+09 1.002527e+09 
   26500 1.0198576e+09 9.9659391e+08 
   26600 1.0290527e+09 1.0061919e+09 
   26700 1.0192075e+09 9.9635656e+08 
   26800 1.0238196e+09 1.0008353e+09 
   26900 1.0306394e+09 1.0079474e+09 
   27000 1.0249468e+09 1.0018874e+09 
Loop time of 672.404 on 6 procs for 1000 steps with 31755 atoms

Pair  time (%) = 601.922 (89.518)
Bond  time (%) = 0.78531 (0.116791)
Neigh time (%) = 5.17522 (0.76966)
Comm  time (%) = 27.0545 (4.02355)
Outpt time (%) = 2.11794 (0.31498)
Other time (%) = 35.3484 (5.25703)

Nlocal:    5292.5 ave 5415 max 5117 min
Histogram: 1 0 1 0 0 0 1 1 1 1
Nghost:    7838.17 ave 7998 max 7708 min
Histogram: 2 0 0 1 0 1 0 1 0 1
Neighs:    303056 ave 319395 max 286465 min
Histogram: 2 0 0 0 0 1 1 1 0 1
FullNghs: 606113 ave 636450 max 574314 min
Histogram: 2 0 0 0 0 0 2 1 0 1

Total # of neighbors = 3636676
Ave neighs/atom = 114.523
Ave special neighs/atom = 5.09986
Neighbor list builds = 100
Dangerous builds = 100
velocity all zero linear
WARNING: Use special bonds = 0,1,1 with bond style fene (bond_fene.cpp:189)
Memory usage per processor = 18.891 Mbytes
Step sdpd_kin pTemp 
   27000 1.0249467e+09 1.0018874e+09 
   27100 1.0292673e+09 1.0060061e+09 
   27200 1.0284364e+09 1.0056369e+09 
   27300 1.0215543e+09 9.9904699e+08 
   27400 1.0276767e+09 1.0047228e+09 
   27500 1.0310362e+09 1.0082356e+09 
   27600 1.0212447e+09 9.978629e+08 
   27700 1.0321989e+09 1.0091479e+09 
   27800 1.0260298e+09 1.0031667e+09 
   27900 1.0252554e+09 1.0021174e+09 
   28000 1.0297297e+09 1.0066628e+09 
Loop time of 677.956 on 6 procs for 1000 steps with 31755 atoms

Pair  time (%) = 599.596 (88.4417)
Bond  time (%) = 0.781211 (0.11523)
Neigh time (%) = 5.15179 (0.7599)
Comm  time (%) = 35.2542 (5.20008)
Outpt time (%) = 2.11465 (0.311915)
Other time (%) = 35.0586 (5.17122)

Nlocal:    5292.5 ave 5442 max 5162 min
Histogram: 1 1 1 0 1 0 0 0 0 2
Nghost:    7717.67 ave 7949 max 7490 min
Histogram: 1 0 1 1 1 0 0 0 1 1
Neighs:    301159 ave 318304 max 284984 min
Histogram: 1 0 2 0 0 1 0 0 1 1
FullNghs: 602317 ave 637279 max 570547 min
Histogram: 1 0 2 0 0 1 0 0 1 1

Total # of neighbors = 3613904
Ave neighs/atom = 113.806
Ave special neighs/atom = 5.09986
Neighbor list builds = 100
Dangerous builds = 100
velocity all zero linear
WARNING: Use special bonds = 0,1,1 with bond style fene (bond_fene.cpp:189)
Memory usage per processor = 18.891 Mbytes
Step sdpd_kin pTemp 
   28000 1.0297297e+09 1.0066628e+09 
   28100 1.0211726e+09 9.9784889e+08 
   28200 1.0211603e+09 9.9815819e+08 
   28300 1.0244573e+09 1.000778e+09 
   28400 1.0342989e+09 1.0106566e+09 
   28500 1.0227179e+09 9.9935324e+08 
   28600 1.024417e+09 1.0013823e+09 
   28700 1.019098e+09 9.961923e+08 
   28800 1.0160198e+09 9.9300884e+08 
   28900 1.0200791e+09 9.9696189e+08 
   29000 1.0255673e+09 1.0021461e+09 
Loop time of 679.048 on 6 procs for 1000 steps with 31755 atoms

Pair  time (%) = 600.184 (88.386)
Bond  time (%) = 0.784306 (0.115501)
Neigh time (%) = 5.15949 (0.759811)
Comm  time (%) = 36.322 (5.34896)
Outpt time (%) = 2.10599 (0.310139)
Other time (%) = 34.4929 (5.0796)

Nlocal:    5292.5 ave 5351 max 5214 min
Histogram: 1 0 0 1 0 0 2 1 0 1
Nghost:    7790.5 ave 8012 max 7491 min
Histogram: 1 0 0 1 0 2 0 0 0 2
Neighs:    302121 ave 306366 max 298090 min
Histogram: 1 0 0 2 1 0 0 1 0 1
FullNghs: 604242 ave 613151 max 594025 min
Histogram: 1 0 0 0 3 0 0 0 1 1

Total # of neighbors = 3625454
Ave neighs/atom = 114.17
Ave special neighs/atom = 5.09986
Neighbor list builds = 100
Dangerous builds = 100
velocity all zero linear
WARNING: Use special bonds = 0,1,1 with bond style fene (bond_fene.cpp:189)
Memory usage per processor = 18.891 Mbytes
Step sdpd_kin pTemp 
   29000 1.0255673e+09 1.0021461e+09 
   29100 1.0293081e+09 1.0061707e+09 
   29200 1.0275996e+09 1.0049061e+09 
   29300 1.0227888e+09 9.9966363e+08 
   29400 1.0212533e+09 9.9818546e+08 
   29500 1.0289629e+09 1.0061903e+09 
   29600 1.0213123e+09 9.9883547e+08 
   29700 1.0222993e+09 9.9987264e+08 
   29800 1.0192196e+09 9.9659876e+08 
   29900 1.0235582e+09 1.0009171e+09 
   30000 1.0296041e+09 1.0075066e+09 
Loop time of 662.326 on 6 procs for 1000 steps with 31755 atoms

Pair  time (%) = 601.258 (90.7798)
Bond  time (%) = 0.787646 (0.118921)
Neigh time (%) = 5.15455 (0.77825)
Comm  time (%) = 19.3375 (2.91964)
Outpt time (%) = 2.12551 (0.320917)
Other time (%) = 33.6623 (5.08244)

Nlocal:    5292.5 ave 5417 max 5174 min
Histogram: 1 1 1 0 0 1 0 0 0 2
Nghost:    7732.5 ave 7954 max 7582 min
Histogram: 2 1 0 0 0 1 1 0 0 1
Neighs:    303069 ave 314795 max 289390 min
Histogram: 1 1 0 0 1 0 1 0 0 2
FullNghs: 606137 ave 631323 max 580835 min
Histogram: 1 1 0 0 1 0 1 0 1 1

Total # of neighbors = 3636824
Ave neighs/atom = 114.528
Ave special neighs/atom = 5.09986
Neighbor list builds = 100
Dangerous builds = 99
velocity all zero linear
WARNING: Use special bonds = 0,1,1 with bond style fene (bond_fene.cpp:189)
Memory usage per processor = 18.1281 Mbytes
Step sdpd_kin pTemp 
   30000 1.029604e+09 1.0075066e+09 
   30100 1.0304888e+09 1.0088196e+09 
   30200 1.0238768e+09 1.0022311e+09 
   30300 1.0294907e+09 1.0075104e+09 
   30400 1.0261339e+09 1.003344e+09 
   30500 1.0247629e+09 1.0024029e+09 
   30600 1.0259252e+09 1.0040102e+09 
   30700 1.018504e+09 9.9676112e+08 
   30800 1.0285261e+09 1.0072066e+09 
   30900 1.0167406e+09 9.9524051e+08 
   31000 1.0239353e+09 1.0024383e+09 
Loop time of 682.285 on 6 procs for 1000 steps with 31755 atoms

Pair  time (%) = 604.061 (88.5349)
Bond  time (%) = 0.785089 (0.115068)
Neigh time (%) = 5.16254 (0.756654)
Comm  time (%) = 35.0214 (5.13295)
Outpt time (%) = 2.11291 (0.309681)
Other time (%) = 35.1426 (5.15071)

Nlocal:    5292.5 ave 5539 max 5107 min
Histogram: 1 0 1 1 1 1 0 0 0 1
Nghost:    7805.67 ave 8063 max 7577 min
Histogram: 2 1 0 0 0 0 0 0 2 1
Neighs:    303452 ave 328266 max 285473 min
Histogram: 1 0 1 1 1 1 0 0 0 1
FullNghs: 606903 ave 655348 max 569123 min
Histogram: 1 0 1 1 1 1 0 0 0 1

Total # of neighbors = 3641418
Ave neighs/atom = 114.672
Ave special neighs/atom = 5.09986
Neighbor list builds = 100
Dangerous builds = 100
velocity all zero linear
WARNING: Use special bonds = 0,1,1 with bond style fene (bond_fene.cpp:189)
Memory usage per processor = 18.891 Mbytes
Step sdpd_kin pTemp 
   31000 1.0239349e+09 1.0024383e+09 
   31100 1.0228387e+09 1.0014081e+09 
   31200 1.0291089e+09 1.0073986e+09 
   31300 1.0287965e+09 1.0067216e+09 
   31400 1.0257519e+09 1.0034133e+09 
   31500 1.0340641e+09 1.0122308e+09 
   31600 1.0311218e+09 1.0091843e+09 
   31700 1.0259757e+09 1.0044867e+09 
   31800 1.0203239e+09 9.9849007e+08 
   31900 1.022833e+09 1.0007873e+09 
   32000 1.0287427e+09 1.0065356e+09 
Loop time of 676.653 on 6 procs for 1000 steps with 31755 atoms

Pair  time (%) = 600.046 (88.6786)
Bond  time (%) = 0.775412 (0.114595)
Neigh time (%) = 5.12578 (0.757521)
Comm  time (%) = 34.5591 (5.10736)
Outpt time (%) = 2.12093 (0.313445)
Other time (%) = 34.025 (5.02843)

Nlocal:    5292.5 ave 5366 max 5215 min
Histogram: 1 1 0 1 0 0 1 0 0 2
Nghost:    7682.33 ave 7807 max 7469 min
Histogram: 1 0 0 0 0 1 0 3 0 1
Neighs:    300626 ave 309722 max 292308 min
Histogram: 2 0 0 0 1 0 1 1 0 1
FullNghs: 601251 ave 619904 max 584091 min
Histogram: 2 0 0 0 1 1 0 1 0 1

Total # of neighbors = 3607506
Ave neighs/atom = 113.604
Ave special neighs/atom = 5.09986
Neighbor list builds = 100
Dangerous builds = 100
velocity all zero linear
WARNING: Use special bonds = 0,1,1 with bond style fene (bond_fene.cpp:189)
Memory usage per processor = 18.1281 Mbytes
Step sdpd_kin pTemp 
   32000 1.0287424e+09 1.0065356e+09 
   32100 1.0235633e+09 1.0017412e+09 
   32200 1.0244714e+09 1.0024618e+09 
   32300 1.0234843e+09 1.0017913e+09 
   32400 1.0302532e+09 1.008531e+09 
   32500 1.0225744e+09 1.000631e+09 
   32600 1.0244674e+09 1.0028793e+09 
   32700 1.0228881e+09 1.0010703e+09 
   32800 1.0301873e+09 1.0079373e+09 
   32900 1.0178961e+09 9.9586403e+08 
   33000 1.0131923e+09 9.9165419e+08 
Loop time of 661.957 on 6 procs for 1000 steps with 31755 atoms

Pair  time (%) = 600.49 (90.7144)
Bond  time (%) = 0.790941 (0.119485)
Neigh time (%) = 5.16804 (0.780722)
Comm  time (%) = 18.8833 (2.85266)
Outpt time (%) = 2.10109 (0.317406)
Other time (%) = 34.5235 (5.21537)

Nlocal:    5292.5 ave 5362 max 5197 min
Histogram: 1 0 0 0 1 0 2 1 0 1
Nghost:    7697 ave 7803 max 7484 min
Histogram: 1 0 0 0 0 0 1 2 1 1
Neighs:    302660 ave 310154 max 294165 min
Histogram: 1 1 0 0 1 0 0 1 1 1
FullNghs: 605319 ave 619606 max 585151 min
Histogram: 1 0 1 0 0 1 0 0 2 1

Total # of neighbors = 3631914
Ave neighs/atom = 114.373
Ave special neighs/atom = 5.09986
Neighbor list builds = 100
Dangerous builds = 100
velocity all zero linear
WARNING: Use special bonds = 0,1,1 with bond style fene (bond_fene.cpp:189)
Memory usage per processor = 18.891 Mbytes
Step sdpd_kin pTemp 
   33000 1.0131922e+09 9.9165419e+08 
   33100 1.0241051e+09 1.0017824e+09 
   33200 1.0245057e+09 1.0021903e+09 
   33300 1.0283112e+09 1.0059274e+09 
   33400 1.0287905e+09 1.0061515e+09 
   33500 1.0261196e+09 1.0033926e+09 
   33600 1.0247849e+09 1.0025279e+09 
   33700 1.0287054e+09 1.0070293e+09 
   33800 1.033226e+09 1.010861e+09 
   33900 1.0184423e+09 9.9655863e+08 
   34000 1.0248153e+09 1.0023755e+09 
Loop time of 659.47 on 6 procs for 1000 steps with 31755 atoms

Pair  time (%) = 601.192 (91.1629)
Bond  time (%) = 0.791144 (0.119967)
Neigh time (%) = 5.14796 (0.78062)
Comm  time (%) = 17.9674 (2.72452)
Outpt time (%) = 2.10295 (0.318885)
Other time (%) = 32.2689 (4.89315)

Nlocal:    5292.5 ave 5361 max 5188 min
Histogram: 1 0 0 0 1 1 0 2 0 1
Nghost:    7720.5 ave 7834 max 7608 min
Histogram: 2 0 0 0 1 1 0 0 1 1
Neighs:    303549 ave 309621 max 292733 min
Histogram: 1 0 0 0 1 0 0 2 0 2
FullNghs: 607099 ave 619212 max 584025 min
Histogram: 1 0 0 0 1 0 0 2 0 2

Total # of neighbors = 3642592
Ave neighs/atom = 114.709
Ave special neighs/atom = 5.09986
Neighbor list builds = 100
Dangerous builds = 100
velocity all zero linear
WARNING: Use special bonds = 0,1,1 with bond style fene (bond_fene.cpp:189)
Memory usage per processor = 18.891 Mbytes
Step sdpd_kin pTemp 
   34000 1.0248153e+09 1.0023755e+09 
   34100 1.0243498e+09 1.0016794e+09 
   34200 1.0307418e+09 1.0073917e+09 
   34300 1.0264532e+09 1.0033245e+09 
   34400 1.0318035e+09 1.008556e+09 
   34500 1.0273191e+09 1.0033914e+09 
   34600 1.0269959e+09 1.0031812e+09 
   34700 1.0285637e+09 1.0045647e+09 
   34800 1.0281278e+09 1.0046453e+09 
   34900 1.0290717e+09 1.0053364e+09 
   35000 1.0253752e+09 1.001694e+09 
Loop time of 665.317 on 6 procs for 1000 steps with 31755 atoms

Pair  time (%) = 603.218 (90.6663)
Bond  time (%) = 0.790479 (0.118812)
Neigh time (%) = 5.17245 (0.777442)
Comm  time (%) = 19.3225 (2.90426)
Outpt time (%) = 2.10364 (0.316186)
Other time (%) = 34.7094 (5.21697)

Nlocal:    5292.5 ave 5446 max 5190 min
Histogram: 1 1 0 2 0 0 1 0 0 1
Nghost:    7829.5 ave 7971 max 7741 min
Histogram: 2 1 1 0 0 0 0 0 1 1
Neighs:    303497 ave 315457 max 290381 min
Histogram: 1 0 1 0 0 1 1 1 0 1
FullNghs: 606995 ave 631855 max 580853 min
Histogram: 1 0 1 0 0 2 0 1 0 1

Total # of neighbors = 3641968
Ave neighs/atom = 114.69
Ave special neighs/atom = 5.09986
Neighbor list builds = 100
Dangerous builds = 100
velocity all zero linear
WARNING: Use special bonds = 0,1,1 with bond style fene (bond_fene.cpp:189)
Memory usage per processor = 18.891 Mbytes
Step sdpd_kin pTemp 
   35000 1.0253748e+09 1.001694e+09 
   35100 1.031485e+09 1.0070537e+09 
   35200 1.030466e+09 1.0061867e+09 
   35300 1.022523e+09 9.988811e+08 
   35400 1.0302457e+09 1.0062924e+09 
   35500 1.030687e+09 1.0065122e+09 
   35600 1.0219408e+09 9.9818867e+08 
   35700 1.0226548e+09 9.9860828e+08 
   35800 1.0311325e+09 1.0072518e+09 
   35900 1.0292564e+09 1.005515e+09 
   36000 1.0201368e+09 9.9584402e+08 
Loop time of 678.174 on 6 procs for 1000 steps with 31755 atoms

Pair  time (%) = 602.607 (88.8572)
Bond  time (%) = 0.777244 (0.114608)
Neigh time (%) = 5.14336 (0.758413)
Comm  time (%) = 33.5695 (4.94999)
Outpt time (%) = 2.09836 (0.309413)
Other time (%) = 33.979 (5.01036)

Nlocal:    5292.5 ave 5464 max 5117 min
Histogram: 1 1 0 0 1 0 0 2 0 1
Nghost:    7849.67 ave 8042 max 7699 min
Histogram: 1 1 0 1 1 0 0 1 0 1
Neighs:    303363 ave 321557 max 281997 min
Histogram: 1 0 1 0 0 1 1 0 1 1
FullNghs: 606726 ave 642315 max 564704 min
Histogram: 1 0 1 0 0 1 1 0 1 1

Total # of neighbors = 3640358
Ave neighs/atom = 114.639
Ave special neighs/atom = 5.09986
Neighbor list builds = 100
Dangerous builds = 100
velocity all zero linear
WARNING: Use special bonds = 0,1,1 with bond style fene (bond_fene.cpp:189)
Memory usage per processor = 18.891 Mbytes
Step sdpd_kin pTemp 
   36000 1.020136e+09 9.9584402e+08 
   36100 1.0359912e+09 1.0117685e+09 
   36200 1.0337096e+09 1.0102791e+09 
   36300 1.0327365e+09 1.0090294e+09 
   36400 1.0276861e+09 1.0040633e+09 
   36500 1.0313047e+09 1.0074815e+09 
   36600 1.017172e+09 9.9355597e+08 
   36700 1.0332484e+09 1.0094704e+09 
   36800 1.0285823e+09 1.0047982e+09 
   36900 1.031285e+09 1.0077653e+09 
   37000 1.0256952e+09 1.0022442e+09 
Loop time of 686.525 on 6 procs for 1000 steps with 31755 atoms

Pair  time (%) = 603.469 (87.902)
Bond  time (%) = 0.775996 (0.113032)
Neigh time (%) = 5.12348 (0.746292)
Comm  time (%) = 41.0537 (5.97992)
Outpt time (%) = 2.10019 (0.305917)
Other time (%) = 34.0026 (4.95286)

Nlocal:    5292.5 ave 5468 max 5114 min
Histogram: 1 0 1 0 0 2 1 0 0 1
Nghost:    7725.33 ave 7900 max 7449 min
Histogram: 1 0 0 2 0 0 0 0 0 3
Neighs:    303546 ave 321335 max 286439 min
Histogram: 1 0 1 0 1 1 1 0 0 1
FullNghs: 607091 ave 643338 max 571975 min
Histogram: 1 0 1 0 1 1 1 0 0 1

Total # of neighbors = 3642548
Ave neighs/atom = 114.708
Ave special neighs/atom = 5.09986
Neighbor list builds = 100
Dangerous builds = 100
velocity all zero linear
WARNING: Use special bonds = 0,1,1 with bond style fene (bond_fene.cpp:189)
Memory usage per processor = 18.891 Mbytes
Step sdpd_kin pTemp 
   37000 1.0256942e+09 1.0022442e+09 
   37100 1.016867e+09 9.931025e+08 
   37200 1.0266438e+09 1.0024538e+09 
   37300 1.0290579e+09 1.0051972e+09 
   37400 1.0270285e+09 1.0032192e+09 
   37500 1.0280687e+09 1.0044482e+09 
   37600 1.0250508e+09 1.0014723e+09 
   37700 1.034471e+09 1.0103144e+09 
   37800 1.0214194e+09 9.9731836e+08 
   37900 1.0297282e+09 1.0060324e+09 
   38000 1.0312744e+09 1.0072355e+09 
Loop time of 682.092 on 6 procs for 1000 steps with 31755 atoms

Pair  time (%) = 603.433 (88.468)
Bond  time (%) = 0.777227 (0.113948)
Neigh time (%) = 5.13208 (0.752404)
Comm  time (%) = 36.9617 (5.41888)
Outpt time (%) = 2.11077 (0.309456)
Other time (%) = 33.6767 (4.93726)

Nlocal:    5292.5 ave 5437 max 5079 min
Histogram: 1 1 0 0 0 0 0 1 2 1
Nghost:    7743.33 ave 7875 max 7514 min
Histogram: 1 0 0 1 0 1 0 0 0 3
Neighs:    303037 ave 317683 max 277237 min
Histogram: 1 0 0 1 0 0 0 1 2 1
FullNghs: 606074 ave 633189 max 556682 min
Histogram: 1 0 0 1 0 0 0 0 3 1

Total # of neighbors = 3636444
Ave neighs/atom = 114.516
Ave special neighs/atom = 5.09986
Neighbor list builds = 100
Dangerous builds = 100
velocity all zero linear
WARNING: Use special bonds = 0,1,1 with bond style fene (bond_fene.cpp:189)
Memory usage per processor = 18.891 Mbytes
Step sdpd_kin pTemp 
   38000 1.0312734e+09 1.0072355e+09 
   38100 1.023978e+09 1.0002729e+09 
   38200 1.029057e+09 1.0050667e+09 
   38300 1.0313853e+09 1.0073052e+09 
   38400 1.0315165e+09 1.0072673e+09 
   38500 1.0349272e+09 1.0105803e+09 
   38600 1.0285492e+09 1.0039152e+09 
   38700 1.0293814e+09 1.0054739e+09 
   38800 1.0307042e+09 1.0067884e+09 
   38900 1.0213065e+09 9.9709395e+08 
   39000 1.0262123e+09 1.0023876e+09 
Loop time of 675.007 on 6 procs for 1000 steps with 31755 atoms

Pair  time (%) = 602.253 (89.2216)
Bond  time (%) = 0.776163 (0.114986)
Neigh time (%) = 5.13361 (0.760526)
Comm  time (%) = 30.2771 (4.48545)
Outpt time (%) = 2.11189 (0.312869)
Other time (%) = 34.456 (5.10454)

Nlocal:    5292.5 ave 5419 max 5162 min
Histogram: 1 1 0 0 1 0 2 0 0 1
Nghost:    7781.83 ave 7929 max 7616 min
Histogram: 1 1 0 0 0 2 0 0 0 2
Neighs:    302144 ave 319794 max 290170 min
Histogram: 2 0 0 1 0 2 0 0 0 1
FullNghs: 604288 ave 637902 max 580512 min
Histogram: 2 0 0 0 2 1 0 0 0 1

Total # of neighbors = 3625728
Ave neighs/atom = 114.178
Ave special neighs/atom = 5.09986
Neighbor list builds = 100
Dangerous builds = 100
velocity all zero linear
WARNING: Use special bonds = 0,1,1 with bond style fene (bond_fene.cpp:189)
Memory usage per processor = 18.891 Mbytes
Step sdpd_kin pTemp 
   39000 1.0262116e+09 1.0023876e+09 
   39100 1.0271696e+09 1.0037289e+09 
   39200 1.0299534e+09  1.00648e+09 
   39300 1.0277049e+09 1.0054863e+09 
   39400 1.0275592e+09 1.0052115e+09 
   39500 1.0267705e+09 1.0039724e+09 
   39600 1.0280906e+09 1.0052743e+09 
   39700 1.0252932e+09 1.0023381e+09 
   39800 1.0251942e+09 1.0022113e+09 
   39900 1.0222234e+09 9.9928947e+08 
   40000 1.0225713e+09 9.9967144e+08 
Loop time of 674.463 on 6 procs for 1000 steps with 31755 atoms

Pair  time (%) = 600.766 (89.0732)
Bond  time (%) = 0.791049 (0.117286)
Neigh time (%) = 5.14214 (0.762405)
Comm  time (%) = 31.8194 (4.71773)
Outpt time (%) = 2.11997 (0.31432)
Other time (%) = 33.8246 (5.01505)

Nlocal:    5292.5 ave 5372 max 5205 min
Histogram: 1 0 1 0 1 1 0 0 0 2
Nghost:    7774.33 ave 8045 max 7596 min
Histogram: 1 1 0 2 0 0 1 0 0 1
Neighs:    302599 ave 312735 max 296251 min
Histogram: 2 0 1 0 1 0 1 0 0 1
FullNghs: 605198 ave 624658 max 593457 min
Histogram: 2 1 0 0 1 0 1 0 0 1

Total # of neighbors = 3631190
Ave neighs/atom = 114.35
Ave special neighs/atom = 5.09986
Neighbor list builds = 100
Dangerous builds = 99
velocity all zero linear
WARNING: Use special bonds = 0,1,1 with bond style fene (bond_fene.cpp:189)
Memory usage per processor = 18.891 Mbytes
Step sdpd_kin pTemp 
   40000 1.0225709e+09 9.9967144e+08 
   40100 1.0310997e+09 1.0078361e+09 
   40200 1.0249467e+09 1.0022593e+09 
   40300 1.0266074e+09 1.0035248e+09 
   40400 1.0253288e+09 1.0015934e+09 
   40500 1.0249456e+09 1.0015144e+09 
   40600 1.0287067e+09 1.0055079e+09 
   40700 1.0183614e+09 9.9598267e+08 
   40800 1.0267817e+09 1.0044929e+09 
   40900 1.0283298e+09 1.0062954e+09 
   41000 1.0292317e+09 1.0074236e+09 
Loop time of 666.43 on 6 procs for 1000 steps with 31755 atoms

Pair  time (%) = 603.592 (90.571)
Bond  time (%) = 0.787851 (0.11822)
Neigh time (%) = 5.15217 (0.7731)
Comm  time (%) = 21.543 (3.2326)
Outpt time (%) = 2.1038 (0.315683)
Other time (%) = 33.2507 (4.98938)

Nlocal:    5292.5 ave 5390 max 5159 min
Histogram: 1 0 0 1 0 1 0 2 0 1
Nghost:    7799.33 ave 7957 max 7448 min
Histogram: 1 0 0 0 0 1 0 1 0 3
Neighs:    303570 ave 316062 max 290903 min
Histogram: 1 0 1 0 1 0 1 1 0 1
FullNghs: 607140 ave 630628 max 581613 min
Histogram: 1 0 1 0 1 0 1 1 0 1

Total # of neighbors = 3642838
Ave neighs/atom = 114.717
Ave special neighs/atom = 5.09986
Neighbor list builds = 100
Dangerous builds = 100
velocity all zero linear
WARNING: Use special bonds = 0,1,1 with bond style fene (bond_fene.cpp:189)
Memory usage per processor = 18.891 Mbytes
Step sdpd_kin pTemp 
   41000 1.0292315e+09 1.0074236e+09 
   41100 1.0183825e+09 9.9634422e+08 
   41200 1.0166186e+09 9.9525421e+08 
   41300 1.0203048e+09 9.9868131e+08 
   41400 1.0232051e+09 1.0015044e+09 
   41500 1.0223919e+09 1.000793e+09 
   41600 1.0314989e+09 1.0096026e+09 
   41700 1.0350707e+09 1.0131901e+09 
   41800 1.0248372e+09 1.0028119e+09 
   41900 1.0224439e+09 1.0003056e+09 
   42000 1.0249843e+09 1.0026528e+09 
Loop time of 679.4 on 6 procs for 1000 steps with 31755 atoms

Pair  time (%) = 602.716 (88.713)
Bond  time (%) = 0.781339 (0.115004)
Neigh time (%) = 5.12375 (0.754157)
Comm  time (%) = 35.4107 (5.21205)
Outpt time (%) = 2.10696 (0.310121)
Other time (%) = 33.2612 (4.89567)

Nlocal:    5292.5 ave 5445 max 5179 min
Histogram: 2 0 1 1 0 0 0 0 1 1
Nghost:    7896.5 ave 8052 max 7720 min
Histogram: 1 1 0 0 0 1 1 0 1 1
Neighs:    303177 ave 320749 max 287751 min
Histogram: 1 2 0 0 0 1 0 0 1 1
FullNghs: 606354 ave 641831 max 576060 min
Histogram: 1 2 0 0 0 1 0 0 1 1

Total # of neighbors = 3638122
Ave neighs/atom = 114.568
Ave special neighs/atom = 5.09986
Neighbor list builds = 100
Dangerous builds = 100
velocity all zero linear
WARNING: Use special bonds = 0,1,1 with bond style fene (bond_fene.cpp:189)
Memory usage per processor = 18.891 Mbytes
Step sdpd_kin pTemp 
   42000 1.0249843e+09 1.0026528e+09 
   42100 1.0263023e+09 1.0043324e+09 
   42200 1.0235538e+09 1.0010795e+09 
   42300 1.0230013e+09 1.0003889e+09 
   42400 1.0251728e+09 1.0028383e+09 
   42500 1.0258062e+09 1.0041134e+09 
   42600 1.0272464e+09 1.005291e+09 
   42700 1.0342917e+09 1.0118513e+09 
   42800 1.0304815e+09 1.0086313e+09 
   42900 1.0402018e+09 1.0176178e+09 
   43000 1.0250925e+09 1.0026262e+09 
Loop time of 683.656 on 6 procs for 1000 steps with 31755 atoms

Pair  time (%) = 601.728 (88.0163)
Bond  time (%) = 0.785801 (0.114941)
Neigh time (%) = 5.1351 (0.751124)
Comm  time (%) = 39.5972 (5.79198)
Outpt time (%) = 2.12139 (0.310301)
Other time (%) = 34.2879 (5.01538)

Nlocal:    5292.5 ave 5407 max 5162 min
Histogram: 1 1 0 1 0 0 0 0 2 1
Nghost:    7821.17 ave 8005 max 7719 min
Histogram: 2 0 1 1 1 0 0 0 0 1
Neighs:    301388 ave 314879 max 288328 min
Histogram: 2 1 0 0 0 0 0 1 0 2
FullNghs: 602776 ave 628820 max 575970 min
Histogram: 1 2 0 0 0 0 0 1 0 2

Total # of neighbors = 3616654
Ave neighs/atom = 113.892
Ave special neighs/atom = 5.09986
Neighbor list builds = 100
Dangerous builds = 100
velocity all zero linear
WARNING: Use special bonds = 0,1,1 with bond style fene (bond_fene.cpp:189)
Memory usage per processor = 18.891 Mbytes
Step sdpd_kin pTemp 
   43000 1.0250925e+09 1.0026262e+09 
   43100 1.0157088e+09 9.9245561e+08 
   43200 1.0302545e+09 1.0070778e+09 
   43300 1.0230202e+09 9.9951963e+08 
   43400 1.0365179e+09 1.0128709e+09 
   43500 1.0262811e+09 1.0025825e+09 
   43600  1.03372e+09 1.0096298e+09 
   43700 1.030592e+09 1.0069724e+09 
   43800 1.0288756e+09 1.0045186e+09 
   43900 1.0246147e+09 1.0004835e+09 
   44000 1.020963e+09 9.9698941e+08 
Loop time of 665.793 on 6 procs for 1000 steps with 31755 atoms

Pair  time (%) = 598.9 (89.9529)
Bond  time (%) = 0.791473 (0.118877)
Neigh time (%) = 5.15659 (0.774503)
Comm  time (%) = 24.9385 (3.74568)
Outpt time (%) = 2.10692 (0.316453)
Other time (%) = 33.8992 (5.09156)

Nlocal:    5292.5 ave 5420 max 5202 min
Histogram: 1 1 0 2 0 0 1 0 0 1
Nghost:    7797.17 ave 8016 max 7655 min
Histogram: 1 1 1 0 2 0 0 0 0 1
Neighs:    302198 ave 313142 max 294736 min
Histogram: 3 0 0 0 0 1 0 0 1 1
FullNghs: 604396 ave 625973 max 588628 min
Histogram: 2 1 0 0 0 1 0 0 1 1

Total # of neighbors = 3626374
Ave neighs/atom = 114.199
Ave special neighs/atom = 5.09986
Neighbor list builds = 100
Dangerous builds = 100
velocity all zero linear
WARNING: Use special bonds = 0,1,1 with bond style fene (bond_fene.cpp:189)
Memory usage per processor = 18.891 Mbytes
Step sdpd_kin pTemp 
   44000 1.020963e+09 9.9698941e+08 
   44100 1.0244206e+09 1.0005055e+09 
   44200 1.0307085e+09 1.0071334e+09 
   44300 1.0269385e+09 1.0034471e+09 
   44400 1.0270612e+09 1.0033406e+09 
   44500 1.0333387e+09 1.009503e+09 
   44600 1.0268769e+09 1.0029513e+09 
   44700 1.032683e+09 1.0090013e+09 
   44800 1.0282877e+09 1.0047321e+09 
   44900 1.0247384e+09 1.0012482e+09 
   45000 1.029139e+09 1.0062007e+09 
Loop time of 666.031 on 6 procs for 1000 steps with 31755 atoms

Pair  time (%) = 602.364 (90.4408)
Bond  time (%) = 0.793807 (0.119185)
Neigh time (%) = 5.16652 (0.775716)
Comm  time (%) = 22.6338 (3.3983)
Outpt time (%) = 2.10092 (0.315438)
Other time (%) = 32.9726 (4.9506)

Nlocal:    5292.5 ave 5443 max 5168 min
Histogram: 1 1 0 0 1 1 1 0 0 1
Nghost:    7877.67 ave 7990 max 7794 min
Histogram: 2 1 0 0 1 0 0 0 0 2
Neighs:    302952 ave 319366 max 286332 min
Histogram: 1 0 1 0 1 1 0 1 0 1
FullNghs: 605904 ave 638137 max 573810 min
Histogram: 1 0 1 0 1 1 0 1 0 1

Total # of neighbors = 3635424
Ave neighs/atom = 114.484
Ave special neighs/atom = 5.09986
Neighbor list builds = 100
Dangerous builds = 100
velocity all zero linear
WARNING: Use special bonds = 0,1,1 with bond style fene (bond_fene.cpp:189)
Memory usage per processor = 18.891 Mbytes
Step sdpd_kin pTemp 
   45000 1.029139e+09 1.0062007e+09 
   45100 1.0289051e+09 1.0058361e+09 
   45200 1.0270376e+09 1.0039687e+09 
   45300 1.0314378e+09 1.0082237e+09 
   45400 1.0258452e+09 1.0028397e+09 
   45500 1.0217689e+09 9.9861899e+08 
   45600 1.0238366e+09 1.0006626e+09 
   45700 1.0220143e+09 9.9880892e+08 
   45800 1.0318643e+09 1.0091441e+09 
   45900 1.0314554e+09 1.0083096e+09 
   46000 1.0253513e+09 1.0023343e+09 
Loop time of 668.309 on 6 procs for 1000 steps with 31755 atoms

Pair  time (%) = 600.844 (89.9051)
Bond  time (%) = 0.790666 (0.118308)
Neigh time (%) = 5.13889 (0.768939)
Comm  time (%) = 26.8025 (4.01049)
Outpt time (%) = 2.10105 (0.314383)
Other time (%) = 32.6318 (4.88274)

Nlocal:    5292.5 ave 5382 max 5245 min
Histogram: 2 1 0 1 0 1 0 0 0 1
Nghost:    7859.67 ave 8029 max 7650 min
Histogram: 1 0 0 1 0 2 0 0 1 1
Neighs:    301949 ave 313610 max 294553 min
Histogram: 1 1 1 0 2 0 0 0 0 1
FullNghs: 603898 ave 628297 max 589324 min
Histogram: 2 0 1 1 0 1 0 0 0 1

Total # of neighbors = 3623390
Ave neighs/atom = 114.105
Ave special neighs/atom = 5.09986
Neighbor list builds = 100
Dangerous builds = 100
velocity all zero linear
WARNING: Use special bonds = 0,1,1 with bond style fene (bond_fene.cpp:189)
Memory usage per processor = 18.891 Mbytes
Step sdpd_kin pTemp 
   46000 1.0253513e+09 1.0023343e+09 
   46100 1.0299485e+09 1.0072765e+09 
   46200 1.0231844e+09 1.0008441e+09 
   46300 1.0272117e+09 1.0048804e+09 
   46400 1.0286253e+09 1.0055527e+09 
   46500 1.0249206e+09 1.0022096e+09 
   46600 1.0209771e+09 9.982461e+08 
   46700 1.022338e+09 1.0000694e+09 
   46800 1.0275957e+09 1.004899e+09 
   46900 1.0285921e+09 1.0060867e+09 
   47000 1.0248818e+09 1.0028748e+09 
Loop time of 671.621 on 6 procs for 1000 steps with 31755 atoms

Pair  time (%) = 598.846 (89.1643)
Bond  time (%) = 0.793477 (0.118144)
Neigh time (%) = 5.14777 (0.76647)
Comm  time (%) = 31.6664 (4.71492)
Outpt time (%) = 2.09314 (0.311656)
Other time (%) = 33.074 (4.9245)

Nlocal:    5292.5 ave 5489 max 5176 min
Histogram: 1 1 0 3 0 0 0 0 0 1
Nghost:    7851.33 ave 7984 max 7705 min
Histogram: 1 0 1 0 0 1 1 1 0 1
Neighs:    302416 ave 323836 max 288298 min
Histogram: 1 0 1 2 1 0 0 0 0 1
FullNghs: 604833 ave 647394 max 578614 min
Histogram: 1 0 2 1 1 0 0 0 0 1

Total # of neighbors = 3628998
Ave neighs/atom = 114.281
Ave special neighs/atom = 5.09986
Neighbor list builds = 100
Dangerous builds = 100
velocity all zero linear
WARNING: Use special bonds = 0,1,1 with bond style fene (bond_fene.cpp:189)
Memory usage per processor = 18.891 Mbytes
Step sdpd_kin pTemp 
   47000 1.0248818e+09 1.0028748e+09 
   47100 1.0276296e+09 1.0057844e+09 
   47200 1.0253392e+09 1.0034588e+09 
   47300 1.0232494e+09 1.0017991e+09 
   47400 1.0225342e+09 1.0010496e+09 
   47500 1.026719e+09 1.0050098e+09 
   47600 1.024666e+09 1.0031632e+09 
   47700 1.0175674e+09 9.9588441e+08 
   47800 1.0175736e+09 9.9552415e+08 
   47900 1.0244235e+09 1.0017428e+09 
   48000 1.0236167e+09 1.0011436e+09 
Loop time of 671.054 on 6 procs for 1000 steps with 31755 atoms

Pair  time (%) = 599.759 (89.3756)
Bond  time (%) = 0.795776 (0.118586)
Neigh time (%) = 5.14765 (0.767099)
Comm  time (%) = 29.0666 (4.33148)
Outpt time (%) = 2.09788 (0.312625)
Other time (%) = 34.1879 (5.09465)

Nlocal:    5292.5 ave 5393 max 5171 min
Histogram: 1 0 0 1 0 1 1 1 0 1
Nghost:    7857.83 ave 8007 max 7776 min
Histogram: 2 1 1 0 0 0 1 0 0 1
Neighs:    302813 ave 313498 max 293895 min
Histogram: 1 1 1 0 1 0 0 0 1 1
FullNghs: 605626 ave 627399 max 585867 min
Histogram: 1 1 0 1 0 1 0 0 1 1

Total # of neighbors = 3633754
Ave neighs/atom = 114.431
Ave special neighs/atom = 5.09986
Neighbor list builds = 100
Dangerous builds = 100
velocity all zero linear
WARNING: Use special bonds = 0,1,1 with bond style fene (bond_fene.cpp:189)
Memory usage per processor = 18.891 Mbytes
Step sdpd_kin pTemp 
   48000 1.0236166e+09 1.0011436e+09 
   48100 1.0222129e+09 9.9931099e+08 
   48200 1.0352772e+09 1.0131063e+09 
   48300 1.024264e+09 1.0023631e+09 
   48400 1.0236294e+09 1.0012361e+09 
   48500 1.0248066e+09 1.0016969e+09 
   48600 1.025582e+09 1.0029429e+09 
   48700 1.0300885e+09 1.0069791e+09 
   48800 1.0254865e+09 1.0025705e+09 
   48900 1.024039e+09 1.0016475e+09 
   49000 1.030857e+09 1.0084245e+09 
Loop time of 662.374 on 6 procs for 1000 steps with 31755 atoms

Pair  time (%) = 602.236 (90.9207)
Bond  time (%) = 0.797859 (0.120454)
Neigh time (%) = 5.15691 (0.77855)
Comm  time (%) = 19.0172 (2.87106)
Outpt time (%) = 2.10398 (0.317642)
Other time (%) = 33.0628 (4.99156)

Nlocal:    5292.5 ave 5450 max 5184 min
Histogram: 1 0 1 2 1 0 0 0 0 1
[...]
Bond  time (%) = 0.804766 (0.119629)
Neigh time (%) = 5.15497 (0.766288)
Comm  time (%) = 26.3518 (3.91721)
Outpt time (%) = 2.10855 (0.313436)
Other time (%) = 33.9354 (5.04451)

Nlocal:    5292.5 ave 5441 max 5212 min
Histogram: 2 1 0 1 0 1 0 0 0 1
Nghost:    7689 ave 7902 max 7549 min
Histogram: 2 1 0 0 1 0 0 1 0 1
Neighs:    302319 ave 313332 max 289647 min
Histogram: 1 0 0 1 1 1 0 0 1 1
FullNghs: 604638 ave 626071 max 579320 min
Histogram: 1 0 0 1 1 1 0 0 0 2

Total # of neighbors = 3627830
Ave neighs/atom = 114.244
Ave special neighs/atom = 5.09986
Neighbor list builds = 100
Dangerous builds = 100
velocity all zero linear
WARNING: Use special bonds = 0,1,1 with bond style fene (bond_fene.cpp:189)
Memory usage per processor = 18.891 Mbytes
Step sdpd_kin pTemp 
  616000 1.0420152e+09 1.0192527e+09 
  616100 1.0190055e+09 9.9626632e+08 
  616200 1.0262522e+09 1.0032036e+09 
  616300 1.0334057e+09 1.010492e+09 
  616400 1.0257465e+09 1.0031739e+09 
  616500 1.0288621e+09 1.0063263e+09 
  616600 1.0191555e+09 9.9663876e+08 
  616700 1.0157832e+09 9.9376693e+08 
  616800 1.029809e+09 1.0082414e+09 
  616900 1.0244249e+09 1.0025272e+09 
  617000 1.0260183e+09  1.00444e+09 
Loop time of 670.187 on 6 procs for 1000 steps with 31755 atoms

Pair  time (%) = 603.86 (90.1032)
Bond  time (%) = 0.791514 (0.118103)
Neigh time (%) = 5.15409 (0.769053)
Comm  time (%) = 25.2807 (3.77218)
Outpt time (%) = 2.0921 (0.312167)
Other time (%) = 33.0087 (4.9253)

Nlocal:    5292.5 ave 5450 max 5172 min
Histogram: 2 1 0 0 1 0 0 0 0 2
Nghost:    7730 ave 7879 max 7488 min
Histogram: 1 0 0 0 0 2 0 1 1 1
Neighs:    303835 ave 317521 max 292001 min
Histogram: 2 0 0 1 0 1 0 0 1 1
FullNghs: 607670 ave 635907 max 585329 min
Histogram: 2 0 1 0 0 1 0 0 1 1

Total # of neighbors = 3646018
Ave neighs/atom = 114.817
Ave special neighs/atom = 5.09986
Neighbor list builds = 100
Dangerous builds = 100
velocity all zero linear
WARNING: Use special bonds = 0,1,1 with bond style fene (bond_fene.cpp:189)
Memory usage per processor = 18.891 Mbytes
Step sdpd_kin pTemp 
  617000 1.0260183e+09  1.00444e+09 
  617100 1.0163444e+09 9.950681e+08 
  617200 1.0251543e+09 1.0039765e+09 
  617300 1.0230228e+09 1.0015755e+09 
  617400 1.0227856e+09 1.0011698e+09 
  617500 1.0197614e+09 9.9755795e+08 
  617600 1.0284083e+09 1.0065682e+09 
  617700 1.0331137e+09 1.011528e+09 
  617800 1.0291963e+09 1.0074286e+09 
  617900 1.0211762e+09 9.9965982e+08 
  618000 1.0248848e+09 1.0028838e+09 
Loop time of 670.827 on 6 procs for 1000 steps with 31755 atoms

Pair  time (%) = 605.229 (90.2214)
Bond  time (%) = 0.797836 (0.118933)
Neigh time (%) = 5.15618 (0.76863)
Comm  time (%) = 24.0496 (3.58507)
Outpt time (%) = 2.08821 (0.311289)
Other time (%) = 33.506 (4.99473)

Nlocal:    5292.5 ave 5390 max 5177 min
Histogram: 1 1 0 0 0 2 0 0 0 2
Nghost:    7746 ave 7882 max 7613 min
Histogram: 1 0 1 0 2 0 0 1 0 1
Neighs:    303910 ave 314772 max 291686 min
Histogram: 1 1 0 0 0 1 1 1 0 1
FullNghs: 607821 ave 631352 max 581567 min
Histogram: 1 0 1 0 0 2 0 1 0 1

Total # of neighbors = 3646926
Ave neighs/atom = 114.846
Ave special neighs/atom = 5.09986
Neighbor list builds = 100
Dangerous builds = 100
velocity all zero linear
WARNING: Use special bonds = 0,1,1 with bond style fene (bond_fene.cpp:189)
Memory usage per processor = 18.891 Mbytes
Step sdpd_kin pTemp 
  618000 1.0248848e+09 1.0028838e+09 
  618100 1.0231037e+09 1.0012624e+09 
  618200 1.0239784e+09 1.0020248e+09 
  618300 1.0279044e+09 1.0066932e+09 
  618400 1.0268731e+09 1.0055556e+09 
  618500 1.0250313e+09 1.003539e+09 
  618600 1.0171273e+09 9.9549808e+08 
  618700 1.0306386e+09 1.0089609e+09 
  618800 1.0302404e+09 1.0082036e+09 
  618900 1.0217479e+09 9.993898e+08 
  619000  1.02155e+09 9.9946766e+08 
Loop time of 676.751 on 6 procs for 1000 steps with 31755 atoms

Pair  time (%) = 606.844 (89.6701)
Bond  time (%) = 0.788076 (0.11645)
Neigh time (%) = 5.16686 (0.763479)
Comm  time (%) = 28.207 (4.168)
Outpt time (%) = 2.10299 (0.310748)
Other time (%) = 33.6425 (4.97117)

Nlocal:    5292.5 ave 5504 max 5164 min
Histogram: 1 1 1 1 1 0 0 0 0 1
Nghost:    7608.83 ave 7653 max 7505 min
Histogram: 1 0 0 0 1 0 0 0 1 3
Neighs:    303926 ave 324334 max 292339 min
Histogram: 1 2 0 1 1 0 0 0 0 1
FullNghs: 607851 ave 648823 max 584838 min
Histogram: 1 2 0 0 2 0 0 0 0 1

Total # of neighbors = 3647108
Ave neighs/atom = 114.851
Ave special neighs/atom = 5.09986
Neighbor list builds = 100
Dangerous builds = 100
velocity all zero linear
WARNING: Use special bonds = 0,1,1 with bond style fene (bond_fene.cpp:189)
Memory usage per processor = 18.891 Mbytes
Step sdpd_kin pTemp 
  619000  1.02155e+09 9.9946766e+08 
  619100 1.0229976e+09 1.0008061e+09 
  619200 1.0228744e+09 1.0005338e+09 
  619300 1.0247915e+09 1.0024921e+09 
  619400 1.0261036e+09 1.0042857e+09 
  619500 1.0259889e+09 1.0045653e+09 
  619600 1.0091949e+09 9.8788371e+08 
  619700 1.0248301e+09 1.0033526e+09 
  619800 1.0236497e+09 1.0025259e+09 
  619900 1.0222396e+09 1.001171e+09 
  620000 1.028513e+09 1.0075556e+09 
Loop time of 690.585 on 6 procs for 1000 steps with 31755 atoms

Pair  time (%) = 605.62 (87.6967)
Bond  time (%) = 0.788636 (0.114198)
Neigh time (%) = 5.14132 (0.744487)
Comm  time (%) = 43.8511 (6.34985)
Outpt time (%) = 2.12922 (0.308321)
Other time (%) = 33.0547 (4.78648)

Nlocal:    5292.5 ave 5543 max 5146 min
Histogram: 1 1 1 2 0 0 0 0 0 1
Nghost:    7547.5 ave 7709 max 7409 min
Histogram: 2 0 1 0 0 0 1 0 1 1
Neighs:    303123 ave 327842 max 292326 min
Histogram: 2 1 1 1 0 0 0 0 0 1
FullNghs: 606246 ave 654210 max 586313 min
Histogram: 2 2 0 1 0 0 0 0 0 1

Total # of neighbors = 3637478
Ave neighs/atom = 114.548
Ave special neighs/atom = 5.09986
Neighbor list builds = 100
Dangerous builds = 99
velocity all zero linear
WARNING: Use special bonds = 0,1,1 with bond style fene (bond_fene.cpp:189)
Memory usage per processor = 18.891 Mbytes
Step sdpd_kin pTemp 
  620000 1.028513e+09 1.0075556e+09 
  620100 1.023914e+09 1.0030009e+09 
  620200 1.0251224e+09 1.004218e+09 
  620300 1.0319297e+09 1.0113639e+09 
  620400 1.0368924e+09 1.0162316e+09 
  620500 1.0274862e+09 1.0069998e+09 
  620600 1.0238552e+09 1.003258e+09 
  620700 1.0156876e+09 9.9566849e+08 
  620800 1.0227814e+09 1.0026821e+09 
  620900 1.0226611e+09 1.002234e+09 
  621000 1.0281999e+09 1.0079752e+09 
Loop time of 691.793 on 6 procs for 1000 steps with 31755 atoms

Pair  time (%) = 604.593 (87.3951)
Bond  time (%) = 0.778748 (0.11257)
Neigh time (%) = 5.14928 (0.744338)
Comm  time (%) = 45.214 (6.53578)
Outpt time (%) = 2.12429 (0.30707)
Other time (%) = 33.9334 (4.90514)

Nlocal:    5292.5 ave 5446 max 5168 min
Histogram: 2 0 0 1 1 0 0 1 0 1
Nghost:    7661.33 ave 7823 max 7557 min
Histogram: 2 0 1 0 1 0 1 0 0 1
Neighs:    303184 ave 318302 max 287320 min
Histogram: 2 0 0 0 0 2 0 0 1 1
FullNghs: 606367 ave 636516 max 576627 min
Histogram: 2 0 0 0 1 1 0 0 1 1

Total # of neighbors = 3638204
Ave neighs/atom = 114.571
Ave special neighs/atom = 5.09986
Neighbor list builds = 100
Dangerous builds = 100
velocity all zero linear
WARNING: Use special bonds = 0,1,1 with bond style fene (bond_fene.cpp:189)
Memory usage per processor = 18.891 Mbytes
Step sdpd_kin pTemp 
  621000 1.0281999e+09 1.0079752e+09 
  621100 1.0282871e+09 1.0081613e+09 
  621200 1.0258706e+09 1.0056491e+09 
  621300 1.0237152e+09 1.0032518e+09 
  621400 1.0188019e+09 9.984241e+08 
  621500 1.0183033e+09 9.9813049e+08 
  621600 1.0261343e+09 1.0060503e+09 
  621700 1.0188334e+09 9.986567e+08 
  621800 1.0291804e+09 1.0084727e+09 
  621900 1.014906e+09 9.9422079e+08 
  622000 1.0238467e+09 1.0037293e+09 
Loop time of 676.18 on 6 procs for 1000 steps with 31755 atoms

Pair  time (%) = 602.795 (89.147)
Bond  time (%) = 0.786967 (0.116384)
Neigh time (%) = 5.1627 (0.763509)
Comm  time (%) = 31.1065 (4.60033)
Outpt time (%) = 2.10708 (0.311616)
Other time (%) = 34.2223 (5.06112)

Nlocal:    5292.5 ave 5486 max 5193 min
Histogram: 1 1 1 2 0 0 0 0 0 1
Nghost:    7760.83 ave 7880 max 7640 min
Histogram: 2 1 0 0 0 0 0 0 1 2
Neighs:    302437 ave 321879 max 289170 min
Histogram: 1 0 1 2 0 1 0 0 0 1
FullNghs: 604875 ave 646691 max 580044 min
Histogram: 1 0 2 1 1 0 0 0 0 1

Total # of neighbors = 3629248
Ave neighs/atom = 114.289
Ave special neighs/atom = 5.09986
Neighbor list builds = 100
Dangerous builds = 100
velocity all zero linear
WARNING: Use special bonds = 0,1,1 with bond style fene (bond_fene.cpp:189)
Memory usage per processor = 18.891 Mbytes
Step sdpd_kin pTemp 
  622000 1.0238466e+09 1.0037293e+09 
  622100 1.0193143e+09 9.9893052e+08 
  622200 1.0207768e+09 1.000203e+09 
  622300 1.0259623e+09 1.0052506e+09 
  622400 1.0204547e+09 9.9994629e+08 
  622500 1.0242101e+09 1.0039105e+09 
  622600 1.0243857e+09 1.0044306e+09 
  622700 1.0234906e+09 1.0026818e+09 
  622800 1.0180179e+09 9.9749394e+08 
  622900 1.0177415e+09 9.9761118e+08 
  623000 1.0244478e+09 1.0040226e+09 
Loop time of 693.239 on 6 procs for 1000 steps with 31755 atoms

Pair  time (%) = 604.111 (87.1433)
Bond  time (%) = 0.798042 (0.115118)
Neigh time (%) = 5.15376 (0.743432)
Comm  time (%) = 46.6769 (6.73316)
Outpt time (%) = 2.10964 (0.304316)
Other time (%) = 34.3896 (4.96071)

Nlocal:    5292.5 ave 5490 max 5215 min
Histogram: 3 1 0 0 1 0 0 0 0 1
Nghost:    7726.67 ave 7886 max 7521 min
Histogram: 1 0 0 0 1 1 2 0 0 1
Neighs:    302757 ave 323929 max 293479 min
Histogram: 2 1 1 0 1 0 0 0 0 1
FullNghs: 605514 ave 646698 max 587899 min
Histogram: 3 0 1 0 1 0 0 0 0 1

Total # of neighbors = 3633082
Ave neighs/atom = 114.41
Ave special neighs/atom = 5.09986
Neighbor list builds = 100
Dangerous builds = 100
velocity all zero linear
WARNING: Use special bonds = 0,1,1 with bond style fene (bond_fene.cpp:189)
Memory usage per processor = 18.891 Mbytes
Step sdpd_kin pTemp 
  623000 1.0244476e+09 1.0040226e+09 
  623100 1.0224739e+09 1.0024825e+09 
  623200 1.0275208e+09 1.0070485e+09 
  623300 1.0139796e+09 9.9354147e+08 
  623400 1.0223897e+09 1.0019225e+09 
  623500 1.0221937e+09 1.0017216e+09 
  623600 1.0177386e+09 9.9737827e+08 
  623700 1.0143007e+09 9.9383427e+08 
  623800 1.028066e+09 1.0075505e+09 
  623900 1.0239778e+09 1.0036284e+09 
  624000 1.023723e+09 1.003433e+09 
Loop time of 682.923 on 6 procs for 1000 steps with 31755 atoms

Pair  time (%) = 603.955 (88.4369)
Bond  time (%) = 0.78761 (0.115329)
Neigh time (%) = 5.15291 (0.754539)
Comm  time (%) = 36.2529 (5.30849)
Outpt time (%) = 2.10059 (0.307588)
Other time (%) = 34.6732 (5.07718)

Nlocal:    5292.5 ave 5429 max 5158 min
Histogram: 1 1 0 1 0 0 0 2 0 1
Nghost:    7800.33 ave 7921 max 7713 min
Histogram: 1 1 0 1 1 1 0 0 0 1
Neighs:    302585 ave 319436 max 287574 min
Histogram: 2 0 0 0 1 0 1 1 0 1
FullNghs: 605171 ave 639538 max 575196 min
Histogram: 2 0 0 0 1 0 1 1 0 1

Total # of neighbors = 3631024
Ave neighs/atom = 114.345
Ave special neighs/atom = 5.09986
Neighbor list builds = 100
Dangerous builds = 100
velocity all zero linear
WARNING: Use special bonds = 0,1,1 with bond style fene (bond_fene.cpp:189)
Memory usage per processor = 18.891 Mbytes
Step sdpd_kin pTemp 
  624000 1.0237226e+09 1.003433e+09 
  624100 1.023267e+09 1.0028042e+09 
  624200 1.0219185e+09 1.0016551e+09 
  624300 1.0137144e+09 9.935157e+08 
  624400 1.0167712e+09 9.971671e+08 
  624500 1.0216157e+09 1.0020524e+09 
  624600 1.0285135e+09 1.0091883e+09 
  624700 1.0151333e+09 9.9532492e+08 
  624800 1.0238951e+09 1.0043977e+09 
  624900 1.0232696e+09 1.0036247e+09 
  625000 1.0288695e+09 1.0094257e+09 
Loop time of 682.35 on 6 procs for 1000 steps with 31755 atoms

Pair  time (%) = 603.159 (88.3944)
Bond  time (%) = 0.794556 (0.116444)
Neigh time (%) = 5.12626 (0.751265)
Comm  time (%) = 36.087 (5.28864)
Outpt time (%) = 2.10959 (0.309166)
Other time (%) = 35.0733 (5.14007)

Nlocal:    5292.5 ave 5493 max 5105 min
Histogram: 1 0 1 0 1 1 1 0 0 1
Nghost:    7867.17 ave 8072 max 7691 min
Histogram: 1 0 1 2 0 0 0 0 1 1
Neighs:    302591 ave 324279 max 286593 min
Histogram: 1 1 0 0 2 0 1 0 0 1
FullNghs: 605183 ave 646615 max 572298 min
Histogram: 1 1 0 0 2 0 1 0 0 1

Total # of neighbors = 3631096
Ave neighs/atom = 114.347
Ave special neighs/atom = 5.09986
Neighbor list builds = 100
Dangerous builds = 100
velocity all zero linear
WARNING: Use special bonds = 0,1,1 with bond style fene (bond_fene.cpp:189)
Memory usage per processor = 18.891 Mbytes
Step sdpd_kin pTemp 
  625000 1.0288695e+09 1.0094257e+09 
  625100 1.0192724e+09 9.9936445e+08 
  625200 1.0183744e+09 9.9891811e+08 
  625300 1.0223154e+09 1.0024008e+09 
  625400 1.0166594e+09 9.9717384e+08 
  625500 1.0196198e+09 1.0000168e+09 
  625600 1.0213997e+09 1.0012133e+09 
  625700 1.0269581e+09 1.0063702e+09 
  625800 1.0207327e+09 1.0004266e+09 
  625900 1.0259972e+09 1.005533e+09 
  626000 1.0147236e+09 9.9396333e+08 
Loop time of 670.002 on 6 procs for 1000 steps with 31755 atoms

Pair  time (%) = 601.833 (89.8255)
Bond  time (%) = 0.801441 (0.119618)
Neigh time (%) = 5.14529 (0.767951)
Comm  time (%) = 25.889 (3.86402)
Outpt time (%) = 2.10983 (0.3149)
Other time (%) = 34.2238 (5.10801)

Nlocal:    5292.5 ave 5416 max 5054 min
Histogram: 1 0 0 0 0 1 0 0 3 1
Nghost:    7805.33 ave 7980 max 7537 min
Histogram: 1 0 0 0 0 2 0 1 1 1
Neighs:    301395 ave 311456 max 281797 min
Histogram: 1 0 0 0 1 0 0 0 3 1
FullNghs: 602790 ave 621950 max 562277 min
Histogram: 1 0 0 0 1 0 0 0 2 2

Total # of neighbors = 3616742
Ave neighs/atom = 113.895
Ave special neighs/atom = 5.09986
Neighbor list builds = 100
Dangerous builds = 100
velocity all zero linear
WARNING: Use special bonds = 0,1,1 with bond style fene (bond_fene.cpp:189)
Memory usage per processor = 18.891 Mbytes
Step sdpd_kin pTemp 
  626000 1.0147236e+09 9.9396333e+08 
  626100 1.0335218e+09 1.0133323e+09 
  626200 1.0131939e+09 9.9336676e+08 
  626300 1.0225709e+09 1.0026928e+09 
  626400 1.0197266e+09 1.0000037e+09 
  626500 1.0255744e+09 1.0057713e+09 
  626600 1.0183349e+09 9.9796373e+08 
  626700 1.0315269e+09 1.0117297e+09 
  626800 1.023692e+09 1.0036642e+09 
  626900 1.0246789e+09 1.0047896e+09 
  627000 1.0217562e+09 1.0019218e+09 
Loop time of 666.781 on 6 procs for 1000 steps with 31755 atoms

Pair  time (%) = 598.822 (89.8079)
Bond  time (%) = 0.785525 (0.117809)
Neigh time (%) = 5.12368 (0.768421)
Comm  time (%) = 26.0856 (3.91217)
Outpt time (%) = 2.09025 (0.313485)
Other time (%) = 33.874 (5.08023)

Nlocal:    5292.5 ave 5422 max 5154 min
Histogram: 2 0 1 0 0 0 0 0 1 2
Nghost:    7829.83 ave 7920 max 7687 min
Histogram: 1 0 0 0 1 1 0 0 2 1
Neighs:    301334 ave 317124 max 284596 min
Histogram: 1 1 1 0 0 0 0 1 1 1
FullNghs: 602669 ave 631624 max 569280 min
Histogram: 1 1 1 0 0 0 0 0 1 2

Total # of neighbors = 3616012
Ave neighs/atom = 113.872
Ave special neighs/atom = 5.09986
Neighbor list builds = 100
Dangerous builds = 100
velocity all zero linear
WARNING: Use special bonds = 0,1,1 with bond style fene (bond_fene.cpp:189)
Memory usage per processor = 18.891 Mbytes
Step sdpd_kin pTemp 
  627000 1.021756e+09 1.0019218e+09 
  627100 1.0173048e+09 9.9749062e+08 
  627200 1.0212995e+09 1.001285e+09 
  627300 1.0251648e+09 1.0051778e+09 
  627400 1.0170631e+09 9.966491e+08 
  627500 1.0226032e+09 1.0022869e+09 
  627600 1.0256809e+09 1.004867e+09 
  627700 1.0201388e+09 9.9971661e+08 
  627800 1.0199404e+09 9.9977351e+08 
  627900 1.0194654e+09 9.9914187e+08 
  628000 1.0294331e+09 1.0087024e+09 
Loop time of 675.094 on 6 procs for 1000 steps with 31755 atoms

Pair  time (%) = 601.256 (89.0627)
Bond  time (%) = 0.786063 (0.116438)
Neigh time (%) = 5.11283 (0.757352)
Comm  time (%) = 32.3917 (4.7981)
Outpt time (%) = 2.09894 (0.310911)
Other time (%) = 33.4477 (4.95453)

Nlocal:    5292.5 ave 5417 max 5167 min
Histogram: 1 1 0 0 0 1 2 0 0 1
Nghost:    7791.67 ave 7921 max 7639 min
Histogram: 1 0 0 2 0 1 0 0 0 2
Neighs:    300942 ave 316492 max 287858 min
Histogram: 1 0 1 1 0 2 0 0 0 1
FullNghs: 601884 ave 631093 max 577389 min
Histogram: 1 1 0 1 0 1 1 0 0 1

Total # of neighbors = 3611306
Ave neighs/atom = 113.724
Ave special neighs/atom = 5.09986
Neighbor list builds = 100
Dangerous builds = 100
velocity all zero linear
WARNING: Use special bonds = 0,1,1 with bond style fene (bond_fene.cpp:189)
Memory usage per processor = 18.891 Mbytes
Step sdpd_kin pTemp 
  628000 1.0294328e+09 1.0087024e+09 
  628100 1.0234092e+09 1.003123e+09 
  628200 1.0177049e+09 9.9709839e+08 
  628300 1.0243615e+09 1.0034377e+09 
  628400 1.0199772e+09 9.989268e+08 
  628500 1.0196635e+09 9.9850596e+08 
  628600 1.0259597e+09 1.0045855e+09 
  628700 1.0256183e+09 1.0045052e+09 
  628800 1.0320576e+09 1.0112992e+09 
  628900 1.0310728e+09 1.0098526e+09 
  629000 1.0290794e+09  1.00678e+09 
Loop time of 674.497 on 6 procs for 1000 steps with 31755 atoms

Pair  time (%) = 599.108 (88.8229)
Bond  time (%) = 0.798988 (0.118457)
Neigh time (%) = 5.15088 (0.763663)
Comm  time (%) = 33.144 (4.91388)
Outpt time (%) = 2.11956 (0.314243)
Other time (%) = 34.1759 (5.06687)

Nlocal:    5292.5 ave 5448 max 5128 min
Histogram: 1 0 1 0 1 1 0 0 1 1
Nghost:    7871.83 ave 8044 max 7725 min
Histogram: 1 1 0 1 0 0 2 0 0 1
Neighs:    300095 ave 316087 max 285329 min
Histogram: 1 1 0 0 2 0 0 0 1 1
FullNghs: 600190 ave 630865 max 573773 min
Histogram: 2 0 0 0 2 0 0 0 1 1

Total # of neighbors = 3601140
Ave neighs/atom = 113.404
Ave special neighs/atom = 5.09986
Neighbor list builds = 100
Dangerous builds = 100
velocity all zero linear
WARNING: Use special bonds = 0,1,1 with bond style fene (bond_fene.cpp:189)
Memory usage per processor = 18.891 Mbytes
Step sdpd_kin pTemp 
  629000 1.0290791e+09  1.00678e+09 
  629100 1.0205659e+09 9.9901243e+08 
  629200 1.0232445e+09 1.001287e+09 
  629300 1.0336962e+09 1.0122545e+09 
  629400 1.0291481e+09 1.0076736e+09 
  629500 1.0168827e+09 9.9508131e+08 
  629600 1.0258223e+09 1.0046768e+09 
  629700 1.0214781e+09 9.9990475e+08 
  629800 1.0254341e+09 1.0041682e+09 
  629900 1.0286021e+09 1.0069344e+09 
  630000 1.0257679e+09 1.0042761e+09 
Loop time of 684.086 on 6 procs for 1000 steps with 31755 atoms

Pair  time (%) = 599.849 (87.6862)
Bond  time (%) = 0.794864 (0.116194)
Neigh time (%) = 5.13625 (0.750819)
Comm  time (%) = 42.5475 (6.21961)
Outpt time (%) = 2.1171 (0.309479)
Other time (%) = 33.6416 (4.91774)

Nlocal:    5292.5 ave 5463 max 5137 min
Histogram: 2 0 0 0 1 0 1 1 0 1
Nghost:    7758.5 ave 7905 max 7644 min
Histogram: 1 1 0 1 1 0 1 0 0 1
Neighs:    301487 ave 321480 max 284519 min
Histogram: 1 1 0 0 2 0 1 0 0 1
FullNghs: 602975 ave 643031 max 567773 min
Histogram: 1 1 0 0 1 1 1 0 0 1

Total # of neighbors = 3617848
Ave neighs/atom = 113.93
Ave special neighs/atom = 5.09986
Neighbor list builds = 100
Dangerous builds = 99
velocity all zero linear
WARNING: Use special bonds = 0,1,1 with bond style fene (bond_fene.cpp:189)
Memory usage per processor = 18.891 Mbytes
Step sdpd_kin pTemp 
  630000 1.0257677e+09 1.0042761e+09 
  630100 1.0217099e+09 1.0001787e+09 
  630200 1.0264653e+09 1.0047996e+09 
  630300 1.0276078e+09 1.0059338e+09 
  630400 1.0198594e+09 9.983289e+08 
  630500 1.0292986e+09 1.008122e+09 
  630600 1.0163434e+09 9.9463253e+08 
  630700 1.0236759e+09 1.0021418e+09 
  630800 1.0250485e+09 1.0029682e+09 
  630900 1.0305942e+09 1.0085686e+09 
  631000 1.0265072e+09 1.0042622e+09 
Loop time of 687.309 on 6 procs for 1000 steps with 31755 atoms

Pair  time (%) = 604.361 (87.9315)
Bond  time (%) = 0.811542 (0.118075)
Neigh time (%) = 5.16423 (0.75137)
Comm  time (%) = 40.1566 (5.84258)
Outpt time (%) = 2.11207 (0.307295)
Other time (%) = 34.7036 (5.0492)

Nlocal:    5292.5 ave 5470 max 5189 min
Histogram: 2 1 0 1 0 0 1 0 0 1
Nghost:    7772.33 ave 7926 max 7648 min
Histogram: 1 1 1 0 0 1 1 0 0 1
Neighs:    301850 ave 319117 max 289828 min
Histogram: 1 1 0 2 0 0 1 0 0 1
FullNghs: 603700 ave 637947 max 577663 min
Histogram: 1 1 0 2 0 0 1 0 0 1

Total # of neighbors = 3622198
Ave neighs/atom = 114.067
Ave special neighs/atom = 5.09986
Neighbor list builds = 100
Dangerous builds = 100
