LAMMPS data file from restart file: timestep = 1, procs = 1

3 atoms

1 atom types

0.0000000000000000e+00 1.0000000000000000e-03 xlo xhi
0.0000000000000000e+00 1.0000000000000000e-03 ylo yhi
0.0000000000000000e+00 1.0000000000000000e-03 zlo zhi

Masses

1 1.7e-07

Atoms

1 1 8.2663989468686253e+07 0.0000000000000000e+00 1.0000000000000000e+00 5.0000000000000001e-04 5.0000000000000001e-04 5.0000000000000001e-04 -512 -512 -512
2 1 7.8385794508439422e+07 0.0000000000000000e+00 1.0000000000000000e+00 5.1250000000000015e-04 5.0000000000000001e-04 5.0000000000000001e-04 -512 -512 -512
3 1 7.8385794508439675e+07 0.0000000000000000e+00 1.0000000000000000e+00 5.0000000000000012e-04 5.1250000000000004e-04 5.0000000000000001e-04 -512 -512 -512

Velocities

1 -5.3108439682446963e-17 -5.3641356701037629e-17 0.0000000000000000e+00
2 1.0000000000000000e+00 -2.1389890978451397e-18 0.0000000000000000e+00
3 1.0000000000000000e+00 5.5780345798882770e-17 0.0000000000000000e+00
