ITEM: TIMESTEP
0
ITEM: NUMBER OF ATOMS
7600
ITEM: BOX BOUNDS pp ff pp
0 0.0005
-5e-05 0.0005625
0 0.0005
ITEM: ATOMS x y vx vy id type c_rho_peratom 
0 2.5e-05 0 0 1 2 998.082 
2.5e-05 2.5e-05 0 0 2 2 998.082 
5e-05 2.5e-05 0 0 3 2 998.082 
7.5e-05 2.5e-05 0 0 4 2 998.082 
0.0001 2.5e-05 0 0 5 2 998.082 
0.000125 2.5e-05 0 0 6 2 998.082 
0.00015 2.5e-05 0 0 7 2 998.082 
0.000175 2.5e-05 0 0 8 2 998.082 
0.0002 2.5e-05 0 0 9 2 998.082 
0.000225 2.5e-05 0 0 10 2 998.082 
0.00025 2.5e-05 0 0 11 1 998.082 
0.000275 2.5e-05 0 0 12 1 998.082 
0.0003 2.5e-05 0 0 13 1 998.082 
0.000325 2.5e-05 0 0 14 1 998.082 
0.00035 2.5e-05 0 0 15 1 998.082 
0.000375 2.5e-05 0 0 16 1 998.082 
0.0004 2.5e-05 0 0 17 1 998.082 
0.000425 2.5e-05 0 0 18 1 998.082 
0.00045 2.5e-05 0 0 19 1 998.082 
0.000475 2.5e-05 0 0 20 1 998.082 
0 5e-05 0 0 21 1 998.082 
2.5e-05 5e-05 0 0 22 2 998.082 
5e-05 5e-05 0 0 23 2 998.082 
7.5e-05 5e-05 0 0 24 2 998.082 
0.0001 5e-05 0 0 25 2 998.082 
0.000125 5e-05 0 0 26 2 998.082 
0.00015 5e-05 0 0 27 2 998.082 
0.000175 5e-05 0 0 28 2 998.082 
0.0002 5e-05 0 0 29 2 998.082 
0.000225 5e-05 0 0 30 2 998.082 
0.00025 5e-05 0 0 31 1 998.082 
0.000275 5e-05 0 0 32 1 998.082 
0.0003 5e-05 0 0 33 1 998.082 
0.000325 5e-05 0 0 34 1 998.082 
0.00035 5e-05 0 0 35 1 998.082 
0.000375 5e-05 0 0 36 1 998.082 
0.0004 5e-05 0 0 37 1 998.082 
0.000425 5e-05 0 0 38 1 998.082 
0.00045 5e-05 0 0 39 1 998.082 
0.000475 5e-05 0 0 40 1 998.082 
0 7.5e-05 0 0 41 1 998.082 
2.5e-05 7.5e-05 0 0 42 2 998.082 
5e-05 7.5e-05 0 0 43 2 998.082 
7.5e-05 7.5e-05 0 0 44 2 998.082 
0.0001 7.5e-05 0 0 45 2 998.082 
0.000125 7.5e-05 0 0 46 2 998.082 
0.00015 7.5e-05 0 0 47 2 998.082 
0.000175 7.5e-05 0 0 48 2 998.082 
0.0002 7.5e-05 0 0 49 2 998.082 
0.000225 7.5e-05 0 0 50 2 998.082 
0.00025 7.5e-05 0 0 51 1 998.082 
0.000275 7.5e-05 0 0 52 1 998.082 
0.0003 7.5e-05 0 0 53 1 998.082 
0.000325 7.5e-05 0 0 54 1 998.082 
0.00035 7.5e-05 0 0 55 1 998.082 
0.000375 7.5e-05 0 0 56 1 998.082 
0.0004 7.5e-05 0 0 57 1 998.082 
0.000425 7.5e-05 0 0 58 1 998.082 
0.00045 7.5e-05 0 0 59 1 998.082 
0.000475 7.5e-05 0 0 60 1 998.082 
0 0.0001 0 0 61 1 998.082 
2.5e-05 0.0001 0 0 62 2 998.082 
5e-05 0.0001 0 0 63 2 998.082 
7.5e-05 0.0001 0 0 64 2 998.082 
0.0001 0.0001 0 0 65 2 998.082 
0.000125 0.0001 0 0 66 2 998.082 
0.00015 0.0001 0 0 67 2 998.082 
0.000175 0.0001 0 0 68 2 998.082 
0.0002 0.0001 0 0 69 2 998.082 
0.000225 0.0001 0 0 70 2 998.082 
0.00025 0.0001 0 0 71 1 998.082 
0.000275 0.0001 0 0 72 1 998.082 
0.0003 0.0001 0 0 73 1 998.082 
0.000325 0.0001 0 0 74 1 998.082 
0.00035 0.0001 0 0 75 1 998.082 
0.000375 0.0001 0 0 76 1 998.082 
0.0004 0.0001 0 0 77 1 998.082 
0.000425 0.0001 0 0 78 1 998.082 
0.00045 0.0001 0 0 79 1 998.082 
0.000475 0.0001 0 0 80 1 998.082 
0 0.000125 0 0 81 1 998.082 
2.5e-05 0.000125 0 0 82 2 998.082 
5e-05 0.000125 0 0 83 2 998.082 
7.5e-05 0.000125 0 0 84 2 998.082 
0.0001 0.000125 0 0 85 2 998.082 
0.000125 0.000125 0 0 86 2 998.082 
0.00015 0.000125 0 0 87 2 998.082 
0.000175 0.000125 0 0 88 2 998.082 
0.0002 0.000125 0 0 89 2 998.082 
0.000225 0.000125 0 0 90 2 998.082 
0.00025 0.000125 0 0 91 1 998.082 
0.000275 0.000125 0 0 92 1 998.082 
0.0003 0.000125 0 0 93 1 998.082 
0.000325 0.000125 0 0 94 1 998.082 
0.00035 0.000125 0 0 95 1 998.082 
0.000375 0.000125 0 0 96 1 998.082 
0.0004 0.000125 0 0 97 1 998.082 
0.000425 0.000125 0 0 98 1 998.082 
0.00045 0.000125 0 0 99 1 998.082 
0.000475 0.000125 0 0 100 1 998.082 
0 0.00015 0 0 101 1 998.082 
2.5e-05 0.00015 0 0 102 2 998.082 
5e-05 0.00015 0 0 103 2 998.082 
7.5e-05 0.00015 0 0 104 2 998.082 
0.0001 0.00015 0 0 105 2 998.082 
0.000125 0.00015 0 0 106 2 998.082 
0.00015 0.00015 0 0 107 2 998.082 
0.000175 0.00015 0 0 108 2 998.082 
0.0002 0.00015 0 0 109 2 998.082 
0.000225 0.00015 0 0 110 2 998.082 
0.00025 0.00015 0 0 111 1 998.082 
0.000275 0.00015 0 0 112 1 998.082 
0.0003 0.00015 0 0 113 1 998.082 
0.000325 0.00015 0 0 114 1 998.082 
0.00035 0.00015 0 0 115 1 998.082 
0.000375 0.00015 0 0 116 1 998.082 
0.0004 0.00015 0 0 117 1 998.082 
0.000425 0.00015 0 0 118 1 998.082 
0.00045 0.00015 0 0 119 1 998.082 
0.000475 0.00015 0 0 120 1 998.082 
0 0.000175 0 0 121 1 998.082 
2.5e-05 0.000175 0 0 122 2 998.082 
5e-05 0.000175 0 0 123 2 998.082 
7.5e-05 0.000175 0 0 124 2 998.082 
0.0001 0.000175 0 0 125 2 998.082 
0.000125 0.000175 0 0 126 2 998.082 
0.00015 0.000175 0 0 127 2 998.082 
0.000175 0.000175 0 0 128 2 998.082 
0.0002 0.000175 0 0 129 2 998.082 
0.000225 0.000175 0 0 130 2 998.082 
0.00025 0.000175 0 0 131 1 998.082 
0.000275 0.000175 0 0 132 1 998.082 
0.0003 0.000175 0 0 133 1 998.082 
0.000325 0.000175 0 0 134 1 998.082 
0.00035 0.000175 0 0 135 1 998.082 
0.000375 0.000175 0 0 136 1 998.082 
0.0004 0.000175 0 0 137 1 998.082 
0.000425 0.000175 0 0 138 1 998.082 
0.00045 0.000175 0 0 139 1 998.082 
0.000475 0.000175 0 0 140 1 998.082 
0 0.0002 0 0 141 1 998.082 
2.5e-05 0.0002 0 0 142 2 998.082 
5e-05 0.0002 0 0 143 2 998.082 
7.5e-05 0.0002 0 0 144 2 998.082 
0.0001 0.0002 0 0 145 2 998.082 
0.000125 0.0002 0 0 146 2 998.082 
0.00015 0.0002 0 0 147 2 998.082 
0.000175 0.0002 0 0 148 2 998.082 
0.0002 0.0002 0 0 149 2 998.082 
0.000225 0.0002 0 0 150 2 998.082 
0.00025 0.0002 0 0 151 1 998.082 
0.000275 0.0002 0 0 152 1 998.082 
0.0003 0.0002 0 0 153 1 998.082 
0.000325 0.0002 0 0 154 1 998.082 
0.00035 0.0002 0 0 155 1 998.082 
0.000375 0.0002 0 0 156 1 998.082 
0.0004 0.0002 0 0 157 1 998.082 
0.000425 0.0002 0 0 158 1 998.082 
0.00045 0.0002 0 0 159 1 998.082 
0.000475 0.0002 0 0 160 1 998.082 
0 0.000225 0 0 161 1 998.082 
2.5e-05 0.000225 0 0 162 2 998.082 
5e-05 0.000225 0 0 163 2 998.082 
7.5e-05 0.000225 0 0 164 2 998.082 
0.0001 0.000225 0 0 165 2 998.082 
0.000125 0.000225 0 0 166 2 998.082 
0.00015 0.000225 0 0 167 2 998.082 
0.000175 0.000225 0 0 168 2 998.082 
0.0002 0.000225 0 0 169 2 998.082 
0.000225 0.000225 0 0 170 2 998.082 
0.00025 0.000225 0 0 171 1 998.082 
0.000275 0.000225 0 0 172 1 998.082 
0.0003 0.000225 0 0 173 1 998.082 
0.000325 0.000225 0 0 174 1 998.082 
0.00035 0.000225 0 0 175 1 998.082 
0.000375 0.000225 0 0 176 1 998.082 
0.0004 0.000225 0 0 177 1 998.082 
0.000425 0.000225 0 0 178 1 998.082 
0.00045 0.000225 0 0 179 1 998.082 
0.000475 0.000225 0 0 180 1 998.082 
0 0.00025 0 0 181 1 998.082 
2.5e-05 0.00025 0 0 182 2 998.082 
5e-05 0.00025 0 0 183 2 998.082 
7.5e-05 0.00025 0 0 184 2 998.082 
0.0001 0.00025 0 0 185 2 998.082 
0.000125 0.00025 0 0 186 2 998.082 
0.00015 0.00025 0 0 187 2 998.082 
0.000175 0.00025 0 0 188 2 998.082 
0.0002 0.00025 0 0 189 2 998.082 
0.000225 0.00025 0 0 190 2 998.082 
0.00025 0.00025 0 0 191 1 998.082 
0.000275 0.00025 0 0 192 1 998.082 
0.0003 0.00025 0 0 193 1 998.082 
0.000325 0.00025 0 0 194 1 998.082 
0.00035 0.00025 0 0 195 1 998.082 
0.000375 0.00025 0 0 196 1 998.082 
0.0004 0.00025 0 0 197 1 998.082 
0.000425 0.00025 0 0 198 1 998.082 
0.00045 0.00025 0 0 199 1 998.082 
0.000475 0.00025 0 0 200 1 998.082 
0 0.000275 0 0 201 1 998.082 
2.5e-05 0.000275 0 0 202 2 998.082 
5e-05 0.000275 0 0 203 2 998.082 
7.5e-05 0.000275 0 0 204 2 998.082 
0.0001 0.000275 0 0 205 2 998.082 
0.000125 0.000275 0 0 206 2 998.082 
0.00015 0.000275 0 0 207 2 998.082 
0.000175 0.000275 0 0 208 2 998.082 
0.0002 0.000275 0 0 209 2 998.082 
0.000225 0.000275 0 0 210 2 998.082 
0.00025 0.000275 0 0 211 1 998.082 
0.000275 0.000275 0 0 212 1 998.082 
0.0003 0.000275 0 0 213 1 998.082 
0.000325 0.000275 0 0 214 1 998.082 
0.00035 0.000275 0 0 215 1 998.082 
0.000375 0.000275 0 0 216 1 998.082 
0.0004 0.000275 0 0 217 1 998.082 
0.000425 0.000275 0 0 218 1 998.082 
0.00045 0.000275 0 0 219 1 998.082 
0.000475 0.000275 0 0 220 1 998.082 
0 0.0003 0 0 221 1 998.082 
2.5e-05 0.0003 0 0 222 2 998.082 
5e-05 0.0003 0 0 223 2 998.082 
7.5e-05 0.0003 0 0 224 2 998.082 
0.0001 0.0003 0 0 225 2 998.082 
0.000125 0.0003 0 0 226 2 998.082 
0.00015 0.0003 0 0 227 2 998.082 
0.000175 0.0003 0 0 228 2 998.082 
0.0002 0.0003 0 0 229 2 998.082 
0.000225 0.0003 0 0 230 2 998.082 
0.00025 0.0003 0 0 231 1 998.082 
0.000275 0.0003 0 0 232 1 998.082 
0.0003 0.0003 0 0 233 1 998.082 
0.000325 0.0003 0 0 234 1 998.082 
0.00035 0.0003 0 0 235 1 998.082 
0.000375 0.0003 0 0 236 1 998.082 
0.0004 0.0003 0 0 237 1 998.082 
0.000425 0.0003 0 0 238 1 998.082 
0.00045 0.0003 0 0 239 1 998.082 
0.000475 0.0003 0 0 240 1 998.082 
0 0.000325 0 0 241 1 998.082 
2.5e-05 0.000325 0 0 242 2 998.082 
5e-05 0.000325 0 0 243 2 998.082 
7.5e-05 0.000325 0 0 244 2 998.082 
0.0001 0.000325 0 0 245 2 998.082 
0.000125 0.000325 0 0 246 2 998.082 
0.00015 0.000325 0 0 247 2 998.082 
0.000175 0.000325 0 0 248 2 998.082 
0.0002 0.000325 0 0 249 2 998.082 
0.000225 0.000325 0 0 250 2 998.082 
0.00025 0.000325 0 0 251 1 998.082 
0.000275 0.000325 0 0 252 1 998.082 
0.0003 0.000325 0 0 253 1 998.082 
0.000325 0.000325 0 0 254 1 998.082 
0.00035 0.000325 0 0 255 1 998.082 
0.000375 0.000325 0 0 256 1 998.082 
0.0004 0.000325 0 0 257 1 998.082 
0.000425 0.000325 0 0 258 1 998.082 
0.00045 0.000325 0 0 259 1 998.082 
0.000475 0.000325 0 0 260 1 998.082 
0 0.00035 0 0 261 1 998.082 
2.5e-05 0.00035 0 0 262 2 998.082 
5e-05 0.00035 0 0 263 2 998.082 
7.5e-05 0.00035 0 0 264 2 998.082 
0.0001 0.00035 0 0 265 2 998.082 
0.000125 0.00035 0 0 266 2 998.082 
0.00015 0.00035 0 0 267 2 998.082 
0.000175 0.00035 0 0 268 2 998.082 
0.0002 0.00035 0 0 269 2 998.082 
0.000225 0.00035 0 0 270 2 998.082 
0.00025 0.00035 0 0 271 1 998.082 
0.000275 0.00035 0 0 272 1 998.082 
0.0003 0.00035 0 0 273 1 998.082 
0.000325 0.00035 0 0 274 1 998.082 
0.00035 0.00035 0 0 275 1 998.082 
0.000375 0.00035 0 0 276 1 998.082 
0.0004 0.00035 0 0 277 1 998.082 
0.000425 0.00035 0 0 278 1 998.082 
0.00045 0.00035 0 0 279 1 998.082 
0.000475 0.00035 0 0 280 1 998.082 
0 0.000375 0 0 281 1 998.082 
2.5e-05 0.000375 0 0 282 2 998.082 
5e-05 0.000375 0 0 283 2 998.082 
7.5e-05 0.000375 0 0 284 2 998.082 
0.0001 0.000375 0 0 285 2 998.082 
0.000125 0.000375 0 0 286 2 998.082 
0.00015 0.000375 0 0 287 2 998.082 
0.000175 0.000375 0 0 288 2 998.082 
0.0002 0.000375 0 0 289 2 998.082 
0.000225 0.000375 0 0 290 2 998.082 
0.00025 0.000375 0 0 291 1 998.082 
0.000275 0.000375 0 0 292 1 998.082 
0.0003 0.000375 0 0 293 1 998.082 
0.000325 0.000375 0 0 294 1 998.082 
0.00035 0.000375 0 0 295 1 998.082 
0.000375 0.000375 0 0 296 1 998.082 
0.0004 0.000375 0 0 297 1 998.082 
0.000425 0.000375 0 0 298 1 998.082 
0.00045 0.000375 0 0 299 1 998.082 
0.000475 0.000375 0 0 300 1 998.082 
0 0.0004 0 0 301 1 998.082 
2.5e-05 0.0004 0 0 302 2 998.082 
5e-05 0.0004 0 0 303 2 998.082 
7.5e-05 0.0004 0 0 304 2 998.082 
0.0001 0.0004 0 0 305 2 998.082 
0.000125 0.0004 0 0 306 2 998.082 
0.00015 0.0004 0 0 307 2 998.082 
0.000175 0.0004 0 0 308 2 998.082 
0.0002 0.0004 0 0 309 2 998.082 
0.000225 0.0004 0 0 310 2 998.082 
0.00025 0.0004 0 0 311 1 998.082 
0.000275 0.0004 0 0 312 1 998.082 
0.0003 0.0004 0 0 313 1 998.082 
0.000325 0.0004 0 0 314 1 998.082 
0.00035 0.0004 0 0 315 1 998.082 
0.000375 0.0004 0 0 316 1 998.082 
0.0004 0.0004 0 0 317 1 998.082 
0.000425 0.0004 0 0 318 1 998.082 
0.00045 0.0004 0 0 319 1 998.082 
0.000475 0.0004 0 0 320 1 998.082 
0 0.000425 0 0 321 1 998.082 
2.5e-05 0.000425 0 0 322 2 998.082 
5e-05 0.000425 0 0 323 2 998.082 
7.5e-05 0.000425 0 0 324 2 998.082 
0.0001 0.000425 0 0 325 2 998.082 
0.000125 0.000425 0 0 326 2 998.082 
0.00015 0.000425 0 0 327 2 998.082 
0.000175 0.000425 0 0 328 2 998.082 
0.0002 0.000425 0 0 329 2 998.082 
0.000225 0.000425 0 0 330 2 998.082 
0.00025 0.000425 0 0 331 1 998.082 
0.000275 0.000425 0 0 332 1 998.082 
0.0003 0.000425 0 0 333 1 998.082 
0.000325 0.000425 0 0 334 1 998.082 
0.00035 0.000425 0 0 335 1 998.082 
0.000375 0.000425 0 0 336 1 998.082 
0.0004 0.000425 0 0 337 1 998.082 
0.000425 0.000425 0 0 338 1 998.082 
0.00045 0.000425 0 0 339 1 998.082 
0.000475 0.000425 0 0 340 1 998.082 
0 0.00045 0 0 341 1 998.082 
2.5e-05 0.00045 0 0 342 2 998.082 
5e-05 0.00045 0 0 343 2 998.082 
7.5e-05 0.00045 0 0 344 2 998.082 
0.0001 0.00045 0 0 345 2 998.082 
0.000125 0.00045 0 0 346 2 998.082 
0.00015 0.00045 0 0 347 2 998.082 
0.000175 0.00045 0 0 348 2 998.082 
0.0002 0.00045 0 0 349 2 998.082 
0.000225 0.00045 0 0 350 2 998.082 
0.00025 0.00045 0 0 351 1 998.082 
0.000275 0.00045 0 0 352 1 998.082 
0.0003 0.00045 0 0 353 1 998.082 
0.000325 0.00045 0 0 354 1 998.082 
0.00035 0.00045 0 0 355 1 998.082 
0.000375 0.00045 0 0 356 1 998.082 
0.0004 0.00045 0 0 357 1 998.082 
0.000425 0.00045 0 0 358 1 998.082 
0.00045 0.00045 0 0 359 1 998.082 
0.000475 0.00045 0 0 360 1 998.082 
0 0.000475 0 0 361 1 998.082 
2.5e-05 0.000475 0 0 362 2 998.082 
5e-05 0.000475 0 0 363 2 998.082 
7.5e-05 0.000475 0 0 364 2 998.082 
0.0001 0.000475 0 0 365 2 998.082 
0.000125 0.000475 0 0 366 2 998.082 
0.00015 0.000475 0 0 367 2 998.082 
0.000175 0.000475 0 0 368 2 998.082 
0.0002 0.000475 0 0 369 2 998.082 
0.000225 0.000475 0 0 370 2 998.082 
0.00025 0.000475 0 0 371 1 998.082 
0.000275 0.000475 0 0 372 1 998.082 
0.0003 0.000475 0 0 373 1 998.082 
0.000325 0.000475 0 0 374 1 998.082 
0.00035 0.000475 0 0 375 1 998.082 
0.000375 0.000475 0 0 376 1 998.082 
0.0004 0.000475 0 0 377 1 998.082 
0.000425 0.000475 0 0 378 1 998.082 
0.00045 0.000475 0 0 379 1 998.082 
0.000475 0.000475 0 0 380 1 998.082 
0 2.5e-05 0 0 381 1 998.082 
2.5e-05 2.5e-05 0 0 382 2 998.082 
5e-05 2.5e-05 0 0 383 2 998.082 
7.5e-05 2.5e-05 0 0 384 2 998.082 
0.0001 2.5e-05 0 0 385 2 998.082 
0.000125 2.5e-05 0 0 386 2 998.082 
0.00015 2.5e-05 0 0 387 2 998.082 
0.000175 2.5e-05 0 0 388 2 998.082 
0.0002 2.5e-05 0 0 389 2 998.082 
0.000225 2.5e-05 0 0 390 2 998.082 
0.00025 2.5e-05 0 0 391 1 998.082 
0.000275 2.5e-05 0 0 392 1 998.082 
0.0003 2.5e-05 0 0 393 1 998.082 
0.000325 2.5e-05 0 0 394 1 998.082 
0.00035 2.5e-05 0 0 395 1 998.082 
0.000375 2.5e-05 0 0 396 1 998.082 
0.0004 2.5e-05 0 0 397 1 998.082 
0.000425 2.5e-05 0 0 398 1 998.082 
0.00045 2.5e-05 0 0 399 1 998.082 
0.000475 2.5e-05 0 0 400 1 998.082 
0 5e-05 0 0 401 1 998.082 
2.5e-05 5e-05 0 0 402 2 998.082 
5e-05 5e-05 0 0 403 2 998.082 
7.5e-05 5e-05 0 0 404 2 998.082 
0.0001 5e-05 0 0 405 2 998.082 
0.000125 5e-05 0 0 406 2 998.082 
0.00015 5e-05 0 0 407 2 998.082 
0.000175 5e-05 0 0 408 2 998.082 
0.0002 5e-05 0 0 409 2 998.082 
0.000225 5e-05 0 0 410 2 998.082 
0.00025 5e-05 0 0 411 1 998.082 
0.000275 5e-05 0 0 412 1 998.082 
0.0003 5e-05 0 0 413 1 998.082 
0.000325 5e-05 0 0 414 1 998.082 
0.00035 5e-05 0 0 415 1 998.082 
0.000375 5e-05 0 0 416 1 998.082 
0.0004 5e-05 0 0 417 1 998.082 
0.000425 5e-05 0 0 418 1 998.082 
0.00045 5e-05 0 0 419 1 998.082 
0.000475 5e-05 0 0 420 1 998.082 
0 7.5e-05 0 0 421 1 998.082 
2.5e-05 7.5e-05 0 0 422 2 998.082 
5e-05 7.5e-05 0 0 423 2 998.082 
7.5e-05 7.5e-05 0 0 424 2 998.082 
0.0001 7.5e-05 0 0 425 2 998.082 
0.000125 7.5e-05 0 0 426 2 998.082 
0.00015 7.5e-05 0 0 427 2 998.082 
0.000175 7.5e-05 0 0 428 2 998.082 
0.0002 7.5e-05 0 0 429 2 998.082 
0.000225 7.5e-05 0 0 430 2 998.082 
0.00025 7.5e-05 0 0 431 1 998.082 
0.000275 7.5e-05 0 0 432 1 998.082 
0.0003 7.5e-05 0 0 433 1 998.082 
0.000325 7.5e-05 0 0 434 1 998.082 
0.00035 7.5e-05 0 0 435 1 998.082 
0.000375 7.5e-05 0 0 436 1 998.082 
0.0004 7.5e-05 0 0 437 1 998.082 
0.000425 7.5e-05 0 0 438 1 998.082 
0.00045 7.5e-05 0 0 439 1 998.082 
0.000475 7.5e-05 0 0 440 1 998.082 
0 0.0001 0 0 441 1 998.082 
2.5e-05 0.0001 0 0 442 2 998.082 
5e-05 0.0001 0 0 443 2 998.082 
7.5e-05 0.0001 0 0 444 2 998.082 
0.0001 0.0001 0 0 445 2 998.082 
0.000125 0.0001 0 0 446 2 998.082 
0.00015 0.0001 0 0 447 2 998.082 
0.000175 0.0001 0 0 448 2 998.082 
0.0002 0.0001 0 0 449 2 998.082 
0.000225 0.0001 0 0 450 2 998.082 
0.00025 0.0001 0 0 451 1 998.082 
0.000275 0.0001 0 0 452 1 998.082 
0.0003 0.0001 0 0 453 1 998.082 
0.000325 0.0001 0 0 454 1 998.082 
0.00035 0.0001 0 0 455 1 998.082 
0.000375 0.0001 0 0 456 1 998.082 
0.0004 0.0001 0 0 457 1 998.082 
0.000425 0.0001 0 0 458 1 998.082 
0.00045 0.0001 0 0 459 1 998.082 
0.000475 0.0001 0 0 460 1 998.082 
0 0.000125 0 0 461 1 998.082 
2.5e-05 0.000125 0 0 462 2 998.082 
5e-05 0.000125 0 0 463 2 998.082 
7.5e-05 0.000125 0 0 464 2 998.082 
0.0001 0.000125 0 0 465 2 998.082 
0.000125 0.000125 0 0 466 2 998.082 
0.00015 0.000125 0 0 467 2 998.082 
0.000175 0.000125 0 0 468 2 998.082 
0.0002 0.000125 0 0 469 2 998.082 
0.000225 0.000125 0 0 470 2 998.082 
0.00025 0.000125 0 0 471 1 998.082 
0.000275 0.000125 0 0 472 1 998.082 
0.0003 0.000125 0 0 473 1 998.082 
0.000325 0.000125 0 0 474 1 998.082 
0.00035 0.000125 0 0 475 1 998.082 
0.000375 0.000125 0 0 476 1 998.082 
0.0004 0.000125 0 0 477 1 998.082 
0.000425 0.000125 0 0 478 1 998.082 
0.00045 0.000125 0 0 479 1 998.082 
0.000475 0.000125 0 0 480 1 998.082 
0 0.00015 0 0 481 1 998.082 
2.5e-05 0.00015 0 0 482 2 998.082 
5e-05 0.00015 0 0 483 2 998.082 
7.5e-05 0.00015 0 0 484 2 998.082 
0.0001 0.00015 0 0 485 2 998.082 
0.000125 0.00015 0 0 486 2 998.082 
0.00015 0.00015 0 0 487 2 998.082 
0.000175 0.00015 0 0 488 2 998.082 
0.0002 0.00015 0 0 489 2 998.082 
0.000225 0.00015 0 0 490 2 998.082 
0.00025 0.00015 0 0 491 1 998.082 
0.000275 0.00015 0 0 492 1 998.082 
0.0003 0.00015 0 0 493 1 998.082 
0.000325 0.00015 0 0 494 1 998.082 
0.00035 0.00015 0 0 495 1 998.082 
0.000375 0.00015 0 0 496 1 998.082 
0.0004 0.00015 0 0 497 1 998.082 
0.000425 0.00015 0 0 498 1 998.082 
0.00045 0.00015 0 0 499 1 998.082 
0.000475 0.00015 0 0 500 1 998.082 
0 0.000175 0 0 501 1 998.082 
2.5e-05 0.000175 0 0 502 2 998.082 
5e-05 0.000175 0 0 503 2 998.082 
7.5e-05 0.000175 0 0 504 2 998.082 
0.0001 0.000175 0 0 505 2 998.082 
0.000125 0.000175 0 0 506 2 998.082 
0.00015 0.000175 0 0 507 2 998.082 
0.000175 0.000175 0 0 508 2 998.082 
0.0002 0.000175 0 0 509 2 998.082 
0.000225 0.000175 0 0 510 2 998.082 
0.00025 0.000175 0 0 511 1 998.082 
0.000275 0.000175 0 0 512 1 998.082 
0.0003 0.000175 0 0 513 1 998.082 
0.000325 0.000175 0 0 514 1 998.082 
0.00035 0.000175 0 0 515 1 998.082 
0.000375 0.000175 0 0 516 1 998.082 
0.0004 0.000175 0 0 517 1 998.082 
0.000425 0.000175 0 0 518 1 998.082 
0.00045 0.000175 0 0 519 1 998.082 
0.000475 0.000175 0 0 520 1 998.082 
0 0.0002 0 0 521 1 998.082 
2.5e-05 0.0002 0 0 522 2 998.082 
5e-05 0.0002 0 0 523 2 998.082 
7.5e-05 0.0002 0 0 524 2 998.082 
0.0001 0.0002 0 0 525 2 998.082 
0.000125 0.0002 0 0 526 2 998.082 
0.00015 0.0002 0 0 527 2 998.082 
0.000175 0.0002 0 0 528 2 998.082 
0.0002 0.0002 0 0 529 2 998.082 
0.000225 0.0002 0 0 530 2 998.082 
0.00025 0.0002 0 0 531 1 998.082 
0.000275 0.0002 0 0 532 1 998.082 
0.0003 0.0002 0 0 533 1 998.082 
0.000325 0.0002 0 0 534 1 998.082 
0.00035 0.0002 0 0 535 1 998.082 
0.000375 0.0002 0 0 536 1 998.082 
0.0004 0.0002 0 0 537 1 998.082 
0.000425 0.0002 0 0 538 1 998.082 
0.00045 0.0002 0 0 539 1 998.082 
0.000475 0.0002 0 0 540 1 998.082 
0 0.000225 0 0 541 1 998.082 
2.5e-05 0.000225 0 0 542 2 998.082 
5e-05 0.000225 0 0 543 2 998.082 
7.5e-05 0.000225 0 0 544 2 998.082 
0.0001 0.000225 0 0 545 2 998.082 
0.000125 0.000225 0 0 546 2 998.082 
0.00015 0.000225 0 0 547 2 998.082 
0.000175 0.000225 0 0 548 2 998.082 
0.0002 0.000225 0 0 549 2 998.082 
0.000225 0.000225 0 0 550 2 998.082 
0.00025 0.000225 0 0 551 1 998.082 
0.000275 0.000225 0 0 552 1 998.082 
0.0003 0.000225 0 0 553 1 998.082 
0.000325 0.000225 0 0 554 1 998.082 
0.00035 0.000225 0 0 555 1 998.082 
0.000375 0.000225 0 0 556 1 998.082 
0.0004 0.000225 0 0 557 1 998.082 
0.000425 0.000225 0 0 558 1 998.082 
0.00045 0.000225 0 0 559 1 998.082 
0.000475 0.000225 0 0 560 1 998.082 
0 0.00025 0 0 561 1 998.082 
2.5e-05 0.00025 0 0 562 2 998.082 
5e-05 0.00025 0 0 563 2 998.082 
7.5e-05 0.00025 0 0 564 2 998.082 
0.0001 0.00025 0 0 565 2 998.082 
0.000125 0.00025 0 0 566 2 998.082 
0.00015 0.00025 0 0 567 2 998.082 
0.000175 0.00025 0 0 568 2 998.082 
0.0002 0.00025 0 0 569 2 998.082 
0.000225 0.00025 0 0 570 2 998.082 
0.00025 0.00025 0 0 571 1 998.082 
0.000275 0.00025 0 0 572 1 998.082 
0.0003 0.00025 0 0 573 1 998.082 
0.000325 0.00025 0 0 574 1 998.082 
0.00035 0.00025 0 0 575 1 998.082 
0.000375 0.00025 0 0 576 1 998.082 
0.0004 0.00025 0 0 577 1 998.082 
0.000425 0.00025 0 0 578 1 998.082 
0.00045 0.00025 0 0 579 1 998.082 
0.000475 0.00025 0 0 580 1 998.082 
0 0.000275 0 0 581 1 998.082 
2.5e-05 0.000275 0 0 582 2 998.082 
5e-05 0.000275 0 0 583 2 998.082 
7.5e-05 0.000275 0 0 584 2 998.082 
0.0001 0.000275 0 0 585 2 998.082 
0.000125 0.000275 0 0 586 2 998.082 
0.00015 0.000275 0 0 587 2 998.082 
0.000175 0.000275 0 0 588 2 998.082 
0.0002 0.000275 0 0 589 2 998.082 
0.000225 0.000275 0 0 590 2 998.082 
0.00025 0.000275 0 0 591 1 998.082 
0.000275 0.000275 0 0 592 1 998.082 
0.0003 0.000275 0 0 593 1 998.082 
0.000325 0.000275 0 0 594 1 998.082 
0.00035 0.000275 0 0 595 1 998.082 
0.000375 0.000275 0 0 596 1 998.082 
0.0004 0.000275 0 0 597 1 998.082 
0.000425 0.000275 0 0 598 1 998.082 
0.00045 0.000275 0 0 599 1 998.082 
0.000475 0.000275 0 0 600 1 998.082 
0 0.0003 0 0 601 1 998.082 
2.5e-05 0.0003 0 0 602 2 998.082 
5e-05 0.0003 0 0 603 2 998.082 
7.5e-05 0.0003 0 0 604 2 998.082 
0.0001 0.0003 0 0 605 2 998.082 
0.000125 0.0003 0 0 606 2 998.082 
0.00015 0.0003 0 0 607 2 998.082 
0.000175 0.0003 0 0 608 2 998.082 
0.0002 0.0003 0 0 609 2 998.082 
0.000225 0.0003 0 0 610 2 998.082 
0.00025 0.0003 0 0 611 1 998.082 
0.000275 0.0003 0 0 612 1 998.082 
0.0003 0.0003 0 0 613 1 998.082 
0.000325 0.0003 0 0 614 1 998.082 
0.00035 0.0003 0 0 615 1 998.082 
0.000375 0.0003 0 0 616 1 998.082 
0.0004 0.0003 0 0 617 1 998.082 
0.000425 0.0003 0 0 618 1 998.082 
0.00045 0.0003 0 0 619 1 998.082 
0.000475 0.0003 0 0 620 1 998.082 
0 0.000325 0 0 621 1 998.082 
2.5e-05 0.000325 0 0 622 2 998.082 
5e-05 0.000325 0 0 623 2 998.082 
7.5e-05 0.000325 0 0 624 2 998.082 
0.0001 0.000325 0 0 625 2 998.082 
0.000125 0.000325 0 0 626 2 998.082 
0.00015 0.000325 0 0 627 2 998.082 
0.000175 0.000325 0 0 628 2 998.082 
0.0002 0.000325 0 0 629 2 998.082 
0.000225 0.000325 0 0 630 2 998.082 
0.00025 0.000325 0 0 631 1 998.082 
0.000275 0.000325 0 0 632 1 998.082 
0.0003 0.000325 0 0 633 1 998.082 
0.000325 0.000325 0 0 634 1 998.082 
0.00035 0.000325 0 0 635 1 998.082 
0.000375 0.000325 0 0 636 1 998.082 
0.0004 0.000325 0 0 637 1 998.082 
0.000425 0.000325 0 0 638 1 998.082 
0.00045 0.000325 0 0 639 1 998.082 
0.000475 0.000325 0 0 640 1 998.082 
0 0.00035 0 0 641 1 998.082 
2.5e-05 0.00035 0 0 642 2 998.082 
5e-05 0.00035 0 0 643 2 998.082 
7.5e-05 0.00035 0 0 644 2 998.082 
0.0001 0.00035 0 0 645 2 998.082 
0.000125 0.00035 0 0 646 2 998.082 
0.00015 0.00035 0 0 647 2 998.082 
0.000175 0.00035 0 0 648 2 998.082 
0.0002 0.00035 0 0 649 2 998.082 
0.000225 0.00035 0 0 650 2 998.082 
0.00025 0.00035 0 0 651 1 998.082 
0.000275 0.00035 0 0 652 1 998.082 
0.0003 0.00035 0 0 653 1 998.082 
0.000325 0.00035 0 0 654 1 998.082 
0.00035 0.00035 0 0 655 1 998.082 
0.000375 0.00035 0 0 656 1 998.082 
0.0004 0.00035 0 0 657 1 998.082 
0.000425 0.00035 0 0 658 1 998.082 
0.00045 0.00035 0 0 659 1 998.082 
0.000475 0.00035 0 0 660 1 998.082 
0 0.000375 0 0 661 1 998.082 
2.5e-05 0.000375 0 0 662 2 998.082 
5e-05 0.000375 0 0 663 2 998.082 
7.5e-05 0.000375 0 0 664 2 998.082 
0.0001 0.000375 0 0 665 2 998.082 
0.000125 0.000375 0 0 666 2 998.082 
0.00015 0.000375 0 0 667 2 998.082 
0.000175 0.000375 0 0 668 2 998.082 
0.0002 0.000375 0 0 669 2 998.082 
0.000225 0.000375 0 0 670 2 998.082 
0.00025 0.000375 0 0 671 1 998.082 
0.000275 0.000375 0 0 672 1 998.082 
0.0003 0.000375 0 0 673 1 998.082 
0.000325 0.000375 0 0 674 1 998.082 
0.00035 0.000375 0 0 675 1 998.082 
0.000375 0.000375 0 0 676 1 998.082 
0.0004 0.000375 0 0 677 1 998.082 
0.000425 0.000375 0 0 678 1 998.082 
0.00045 0.000375 0 0 679 1 998.082 
0.000475 0.000375 0 0 680 1 998.082 
0 0.0004 0 0 681 1 998.082 
2.5e-05 0.0004 0 0 682 2 998.082 
5e-05 0.0004 0 0 683 2 998.082 
7.5e-05 0.0004 0 0 684 2 998.082 
0.0001 0.0004 0 0 685 2 998.082 
0.000125 0.0004 0 0 686 2 998.082 
0.00015 0.0004 0 0 687 2 998.082 
0.000175 0.0004 0 0 688 2 998.082 
0.0002 0.0004 0 0 689 2 998.082 
0.000225 0.0004 0 0 690 2 998.082 
0.00025 0.0004 0 0 691 1 998.082 
0.000275 0.0004 0 0 692 1 998.082 
0.0003 0.0004 0 0 693 1 998.082 
0.000325 0.0004 0 0 694 1 998.082 
0.00035 0.0004 0 0 695 1 998.082 
0.000375 0.0004 0 0 696 1 998.082 
0.0004 0.0004 0 0 697 1 998.082 
0.000425 0.0004 0 0 698 1 998.082 
0.00045 0.0004 0 0 699 1 998.082 
0.000475 0.0004 0 0 700 1 998.082 
0 0.000425 0 0 701 1 998.082 
2.5e-05 0.000425 0 0 702 2 998.082 
5e-05 0.000425 0 0 703 2 998.082 
7.5e-05 0.000425 0 0 704 2 998.082 
0.0001 0.000425 0 0 705 2 998.082 
0.000125 0.000425 0 0 706 2 998.082 
0.00015 0.000425 0 0 707 2 998.082 
0.000175 0.000425 0 0 708 2 998.082 
0.0002 0.000425 0 0 709 2 998.082 
0.000225 0.000425 0 0 710 2 998.082 
0.00025 0.000425 0 0 711 1 998.082 
0.000275 0.000425 0 0 712 1 998.082 
0.0003 0.000425 0 0 713 1 998.082 
0.000325 0.000425 0 0 714 1 998.082 
0.00035 0.000425 0 0 715 1 998.082 
0.000375 0.000425 0 0 716 1 998.082 
0.0004 0.000425 0 0 717 1 998.082 
0.000425 0.000425 0 0 718 1 998.082 
0.00045 0.000425 0 0 719 1 998.082 
0.000475 0.000425 0 0 720 1 998.082 
0 0.00045 0 0 721 1 998.082 
2.5e-05 0.00045 0 0 722 2 998.082 
5e-05 0.00045 0 0 723 2 998.082 
7.5e-05 0.00045 0 0 724 2 998.082 
0.0001 0.00045 0 0 725 2 998.082 
0.000125 0.00045 0 0 726 2 998.082 
0.00015 0.00045 0 0 727 2 998.082 
0.000175 0.00045 0 0 728 2 998.082 
0.0002 0.00045 0 0 729 2 998.082 
0.000225 0.00045 0 0 730 2 998.082 
0.00025 0.00045 0 0 731 1 998.082 
0.000275 0.00045 0 0 732 1 998.082 
0.0003 0.00045 0 0 733 1 998.082 
0.000325 0.00045 0 0 734 1 998.082 
0.00035 0.00045 0 0 735 1 998.082 
0.000375 0.00045 0 0 736 1 998.082 
0.0004 0.00045 0 0 737 1 998.082 
0.000425 0.00045 0 0 738 1 998.082 
0.00045 0.00045 0 0 739 1 998.082 
0.000475 0.00045 0 0 740 1 998.082 
0 0.000475 0 0 741 1 998.082 
2.5e-05 0.000475 0 0 742 2 998.082 
5e-05 0.000475 0 0 743 2 998.082 
7.5e-05 0.000475 0 0 744 2 998.082 
0.0001 0.000475 0 0 745 2 998.082 
0.000125 0.000475 0 0 746 2 998.082 
0.00015 0.000475 0 0 747 2 998.082 
0.000175 0.000475 0 0 748 2 998.082 
0.0002 0.000475 0 0 749 2 998.082 
0.000225 0.000475 0 0 750 2 998.082 
0.00025 0.000475 0 0 751 1 998.082 
0.000275 0.000475 0 0 752 1 998.082 
0.0003 0.000475 0 0 753 1 998.082 
0.000325 0.000475 0 0 754 1 998.082 
0.00035 0.000475 0 0 755 1 998.082 
0.000375 0.000475 0 0 756 1 998.082 
0.0004 0.000475 0 0 757 1 998.082 
0.000425 0.000475 0 0 758 1 998.082 
0.00045 0.000475 0 0 759 1 998.082 
0.000475 0.000475 0 0 760 1 998.082 
0 2.5e-05 0 0 761 1 998.082 
2.5e-05 2.5e-05 0 0 762 2 998.082 
5e-05 2.5e-05 0 0 763 2 998.082 
7.5e-05 2.5e-05 0 0 764 2 998.082 
0.0001 2.5e-05 0 0 765 2 998.082 
0.000125 2.5e-05 0 0 766 2 998.082 
0.00015 2.5e-05 0 0 767 2 998.082 
0.000175 2.5e-05 0 0 768 2 998.082 
0.0002 2.5e-05 0 0 769 2 998.082 
0.000225 2.5e-05 0 0 770 2 998.082 
0.00025 2.5e-05 0 0 771 1 998.082 
0.000275 2.5e-05 0 0 772 1 998.082 
0.0003 2.5e-05 0 0 773 1 998.082 
0.000325 2.5e-05 0 0 774 1 998.082 
0.00035 2.5e-05 0 0 775 1 998.082 
0.000375 2.5e-05 0 0 776 1 998.082 
0.0004 2.5e-05 0 0 777 1 998.082 
0.000425 2.5e-05 0 0 778 1 998.082 
0.00045 2.5e-05 0 0 779 1 998.082 
0.000475 2.5e-05 0 0 780 1 998.082 
0 5e-05 0 0 781 1 998.082 
2.5e-05 5e-05 0 0 782 2 998.082 
5e-05 5e-05 0 0 783 2 998.082 
7.5e-05 5e-05 0 0 784 2 998.082 
0.0001 5e-05 0 0 785 2 998.082 
0.000125 5e-05 0 0 786 2 998.082 
0.00015 5e-05 0 0 787 2 998.082 
0.000175 5e-05 0 0 788 2 998.082 
0.0002 5e-05 0 0 789 2 998.082 
0.000225 5e-05 0 0 790 2 998.082 
0.00025 5e-05 0 0 791 1 998.082 
0.000275 5e-05 0 0 792 1 998.082 
0.0003 5e-05 0 0 793 1 998.082 
0.000325 5e-05 0 0 794 1 998.082 
0.00035 5e-05 0 0 795 1 998.082 
0.000375 5e-05 0 0 796 1 998.082 
0.0004 5e-05 0 0 797 1 998.082 
0.000425 5e-05 0 0 798 1 998.082 
0.00045 5e-05 0 0 799 1 998.082 
0.000475 5e-05 0 0 800 1 998.082 
0 7.5e-05 0 0 801 1 998.082 
2.5e-05 7.5e-05 0 0 802 2 998.082 
5e-05 7.5e-05 0 0 803 2 998.082 
7.5e-05 7.5e-05 0 0 804 2 998.082 
0.0001 7.5e-05 0 0 805 2 998.082 
0.000125 7.5e-05 0 0 806 2 998.082 
0.00015 7.5e-05 0 0 807 2 998.082 
0.000175 7.5e-05 0 0 808 2 998.082 
0.0002 7.5e-05 0 0 809 2 998.082 
0.000225 7.5e-05 0 0 810 2 998.082 
0.00025 7.5e-05 0 0 811 1 998.082 
0.000275 7.5e-05 0 0 812 1 998.082 
0.0003 7.5e-05 0 0 813 1 998.082 
0.000325 7.5e-05 0 0 814 1 998.082 
0.00035 7.5e-05 0 0 815 1 998.082 
0.000375 7.5e-05 0 0 816 1 998.082 
0.0004 7.5e-05 0 0 817 1 998.082 
0.000425 7.5e-05 0 0 818 1 998.082 
0.00045 7.5e-05 0 0 819 1 998.082 
0.000475 7.5e-05 0 0 820 1 998.082 
0 0.0001 0 0 821 1 998.082 
2.5e-05 0.0001 0 0 822 2 998.082 
5e-05 0.0001 0 0 823 2 998.082 
7.5e-05 0.0001 0 0 824 2 998.082 
0.0001 0.0001 0 0 825 2 998.082 
0.000125 0.0001 0 0 826 2 998.082 
0.00015 0.0001 0 0 827 2 998.082 
0.000175 0.0001 0 0 828 2 998.082 
0.0002 0.0001 0 0 829 2 998.082 
0.000225 0.0001 0 0 830 2 998.082 
0.00025 0.0001 0 0 831 1 998.082 
0.000275 0.0001 0 0 832 1 998.082 
0.0003 0.0001 0 0 833 1 998.082 
0.000325 0.0001 0 0 834 1 998.082 
0.00035 0.0001 0 0 835 1 998.082 
0.000375 0.0001 0 0 836 1 998.082 
0.0004 0.0001 0 0 837 1 998.082 
0.000425 0.0001 0 0 838 1 998.082 
0.00045 0.0001 0 0 839 1 998.082 
0.000475 0.0001 0 0 840 1 998.082 
0 0.000125 0 0 841 1 998.082 
2.5e-05 0.000125 0 0 842 2 998.082 
5e-05 0.000125 0 0 843 2 998.082 
7.5e-05 0.000125 0 0 844 2 998.082 
0.0001 0.000125 0 0 845 2 998.082 
0.000125 0.000125 0 0 846 2 998.082 
0.00015 0.000125 0 0 847 2 998.082 
0.000175 0.000125 0 0 848 2 998.082 
0.0002 0.000125 0 0 849 2 998.082 
0.000225 0.000125 0 0 850 2 998.082 
0.00025 0.000125 0 0 851 1 998.082 
0.000275 0.000125 0 0 852 1 998.082 
0.0003 0.000125 0 0 853 1 998.082 
0.000325 0.000125 0 0 854 1 998.082 
0.00035 0.000125 0 0 855 1 998.082 
0.000375 0.000125 0 0 856 1 998.082 
0.0004 0.000125 0 0 857 1 998.082 
0.000425 0.000125 0 0 858 1 998.082 
0.00045 0.000125 0 0 859 1 998.082 